 Entering Gaussian System, Link 0=g09
 Input=xtal-ox-td.gjf
 Output=xtal-ox-td.log
 Initial command:
 /n/sw/g09_D.01/g09/l1.exe "/scratch/Gau-52175.inp" -scrdir="/scratch/"
 Entering Link 1 = /n/sw/g09_D.01/g09/l1.exe PID=     52176.
  
 Copyright (c) 1988,1990,1992,1993,1995,1998,2003,2009,2013,
            Gaussian, Inc.  All Rights Reserved.
  
 This is part of the Gaussian(R) 09 program.  It is based on
 the Gaussian(R) 03 system (copyright 2003, Gaussian, Inc.),
 the Gaussian(R) 98 system (copyright 1998, Gaussian, Inc.),
 the Gaussian(R) 94 system (copyright 1995, Gaussian, Inc.),
 the Gaussian 92(TM) system (copyright 1992, Gaussian, Inc.),
 the Gaussian 90(TM) system (copyright 1990, Gaussian, Inc.),
 the Gaussian 88(TM) system (copyright 1988, Gaussian, Inc.),
 the Gaussian 86(TM) system (copyright 1986, Carnegie Mellon
 University), and the Gaussian 82(TM) system (copyright 1983,
 Carnegie Mellon University). Gaussian is a federally registered
 trademark of Gaussian, Inc.
  
 This software contains proprietary and confidential information,
 including trade secrets, belonging to Gaussian, Inc.
  
 This software is provided under written license and may be
 used, copied, transmitted, or stored only in accord with that
 written license.
  
 The following legend is applicable only to US Government
 contracts under FAR:
  
                    RESTRICTED RIGHTS LEGEND
  
 Use, reproduction and disclosure by the US Government is
 subject to restrictions as set forth in subparagraphs (a)
 and (c) of the Commercial Computer Software - Restricted
 Rights clause in FAR 52.227-19.
  
 Gaussian, Inc.
 340 Quinnipiac St., Bldg. 40, Wallingford CT 06492
  
  
 ---------------------------------------------------------------
 Warning -- This program may not be used in any manner that
 competes with the business of Gaussian, Inc. or will provide
 assistance to any competitor of Gaussian, Inc.  The licensee
 of this program is prohibited from giving any competitor of
 Gaussian, Inc. access to this program.  By using this program,
 the user acknowledges that Gaussian, Inc. is engaged in the
 business of creating and licensing software in the field of
 computational chemistry and represents and warrants to the
 licensee that it is not a competitor of Gaussian, Inc. and that
 it will not use this program in any manner prohibited above.
 ---------------------------------------------------------------
  

 Cite this work as:
 Gaussian 09, Revision D.01,
 M. J. Frisch, G. W. Trucks, H. B. Schlegel, G. E. Scuseria, 
 M. A. Robb, J. R. Cheeseman, G. Scalmani, V. Barone, B. Mennucci, 
 G. A. Petersson, H. Nakatsuji, M. Caricato, X. Li, H. P. Hratchian, 
 A. F. Izmaylov, J. Bloino, G. Zheng, J. L. Sonnenberg, M. Hada, 
 M. Ehara, K. Toyota, R. Fukuda, J. Hasegawa, M. Ishida, T. Nakajima, 
 Y. Honda, O. Kitao, H. Nakai, T. Vreven, J. A. Montgomery, Jr., 
 J. E. Peralta, F. Ogliaro, M. Bearpark, J. J. Heyd, E. Brothers, 
 K. N. Kudin, V. N. Staroverov, T. Keith, R. Kobayashi, J. Normand, 
 K. Raghavachari, A. Rendell, J. C. Burant, S. S. Iyengar, J. Tomasi, 
 M. Cossi, N. Rega, J. M. Millam, M. Klene, J. E. Knox, J. B. Cross, 
 V. Bakken, C. Adamo, J. Jaramillo, R. Gomperts, R. E. Stratmann, 
 O. Yazyev, A. J. Austin, R. Cammi, C. Pomelli, J. W. Ochterski, 
 R. L. Martin, K. Morokuma, V. G. Zakrzewski, G. A. Voth, 
 P. Salvador, J. J. Dannenberg, S. Dapprich, A. D. Daniels, 
 O. Farkas, J. B. Foresman, J. V. Ortiz, J. Cioslowski, 
 and D. J. Fox, Gaussian, Inc., Wallingford CT, 2013.
 
 ******************************************
 Gaussian 09:  EM64L-G09RevD.01 24-Apr-2013
                 5-Sep-2015 
 ******************************************
 %chk=xtal-ox-td.chk
 %nprocshared=8
 Will use up to    8 processors via shared memory.
 %mem=30000MB
 ------------------------------------------------------
 #p gen 5d scf=tight ub3lyp guess=read td=(nstates=100)
 ------------------------------------------------------
 1/38=1/1;
 2/12=2,17=6,18=5,40=1/2;
 3/5=7,8=1,11=2,16=1,25=1,30=1,74=-5,116=2/1,2,8,3;
 4/5=1/1;
 5/5=2,32=2,38=6/2;
 8/6=1,10=1,108=100/1;
 9/41=100,42=1,70=2/14;
 6/7=2,8=2,9=2,10=2/1;
 99/5=1,9=1/99;
 Leave Link    1 at Sat Sep  5 11:10:03 2015, MaxMem=  3932160000 cpu:         1.2
 (Enter /n/sw/g09_D.01/g09/l101.exe)
 -----------------
 Mn xtal structure
 -----------------
 Symbolic Z-matrix:
 Charge =  1 Multiplicity = 2
 Co                    6.0806   -4.84985   9.31549 
 Co                    4.86088  -6.43642   11.30628 
 O                     5.97832  -4.9411    11.18258 
 O                     4.92201  -6.30066   9.44313 
 O                     6.13949  -5.05962   7.36583 
 O                     5.10178  -6.47796   13.23884 
 O                     8.56578  -4.29963   11.13617 
 O                     7.4388   -3.45036   9.36487 
 N                     4.64925  -3.51855   9.24884 
 N                     3.20116  -5.39189   11.51072 
 C                     6.199    -6.199     13.79095 
 C                     6.199    -6.199     15.32424 
 C                     6.199    -6.199     6.79212 
 C                     6.199    -6.199     5.31281 
 C                     4.62569  -2.51803   10.1469 
 H                     5.32246  -2.46472   10.76162 
 C                     3.64253  -1.57827   10.20843 
 H                     3.67849  -0.88398   10.82638 
 C                     2.58498  -1.69109   9.31846 
 H                     1.88822  -1.07491   9.33141 
 C                     2.58126  -2.69905   8.43605 
 H                     1.87334  -2.78211   7.83644 
 C                     3.60782  -3.61154   8.40205 
 H                     3.58302  -4.30459   7.78247 
 C                     3.08214  -4.52775   12.51132 
 H                     3.79999  -4.38393   13.08233 
 C                     1.87954  -3.82602   12.71155 
 H                     1.78407  -3.26563   13.44932 
 C                     0.85546  -3.9686    11.8286 
 H                     0.06323  -3.495     11.93816 
 C                     1.01788  -4.82654   10.77781 
 H                     0.33847  -4.93936   10.15176 
 C                     2.20188  -5.52083   10.6526 
 H                     2.30231  -6.10478   9.93588 
 C                     8.36617  -3.46152   10.21598 
 C                     9.38033  -2.33454   10.12477 
 H                     9.93452  -2.46348   9.353 
 H                     9.92832  -2.33082   10.91273 
 H                     8.92036  -1.49396   10.04921 
 O                     6.25851  -7.33838   7.36583 
 O                     7.29622  -5.92005   13.23884 
 Co                    6.3174   -7.54815   9.31549 
 Co                    7.53712  -5.96158   11.30628 
 O                     6.41968  -7.4569    11.18258 
 O                     7.47599  -6.09734   9.44313 
 O                     3.83222  -8.09837   11.13617 
 O                     4.9592   -8.94764   9.36487 
 N                     7.74875  -8.87945   9.24884 
 N                     9.19684  -7.00611   11.51072 
 C                     7.77231  -9.87997   10.1469 
 H                     7.07554  -9.93328   10.76162 
 C                     8.75547  -10.81973   10.20843 
 H                     8.71951  -11.51402   10.82638 
 C                     9.81302  -10.70691   9.31846 
 H                     10.50979  -11.32309   9.33141 
 C                     9.81674  -9.69895   8.43605 
 H                     10.52466  -9.61589   7.83644 
 C                     8.79018  -8.78646   8.40205 
 H                     8.81498  -8.09341   7.78247 
 C                     9.31586  -7.87025   12.51132 
 H                     8.59801  -8.01407   13.08233 
 C                     10.51846  -8.57198   12.71155 
 H                     10.61393  -9.13237   13.44932 
 C                     11.54254  -8.4294    11.8286 
 H                     12.33477  -8.903     11.93816 
 C                     11.38012  -7.57146   10.77781 
 H                     12.05954  -7.45864   10.15176 
 C                     10.19612  -6.87717   10.6526 
 H                     10.09569  -6.29323   9.93588 
 C                     4.03183  -8.93648   10.21598 
 C                     3.01767  -10.06346   10.12477 
 H                     2.46348  -9.93452   9.353 
 H                     2.46968  -10.06718   10.91273 
 H                     3.47764  -10.90404   10.04921 
 H                     7.07265  -6.7034    4.95614 
 H                     5.32535  -6.7034    4.95614 
 H                     6.199    -5.19019   4.95614 
 H                     7.07265  -5.6946    15.68091 
 H                     5.32535  -5.6946    15.68091 
 H                     6.199    -7.20781   15.68091 
 
 NAtoms=     80 NQM=       80 NQMF=       0 NMMI=      0 NMMIF=      0
                NMic=       0 NMicF=      0.
                    Isotopes and Nuclear Properties:
 (Nuclear quadrupole moments (NQMom) in fm**2, nuclear magnetic moments (NMagM)
  in nuclear magnetons)

  Atom         1           2           3           4           5           6           7           8           9          10
 IAtWgt=          59          59          16          16          16          16          16          16          14          14
 AtmWgt=  58.9331978  58.9331978  15.9949146  15.9949146  15.9949146  15.9949146  15.9949146  15.9949146  14.0030740  14.0030740
 NucSpn=           7           7           0           0           0           0           0           0           2           2
 AtZEff=   0.0000000   0.0000000   0.0000000   0.0000000   0.0000000   0.0000000   0.0000000   0.0000000   0.0000000   0.0000000
 NQMom=   42.0000000  42.0000000   0.0000000   0.0000000   0.0000000   0.0000000   0.0000000   0.0000000   2.0440000   2.0440000
 NMagM=    4.6270000   4.6270000   0.0000000   0.0000000   0.0000000   0.0000000   0.0000000   0.0000000   0.4037610   0.4037610
 AtZNuc=  27.0000000  27.0000000   8.0000000   8.0000000   8.0000000   8.0000000   8.0000000   8.0000000   7.0000000   7.0000000

  Atom        11          12          13          14          15          16          17          18          19          20
 IAtWgt=          12          12          12          12          12           1          12           1          12           1
 AtmWgt=  12.0000000  12.0000000  12.0000000  12.0000000  12.0000000   1.0078250  12.0000000   1.0078250  12.0000000   1.0078250
 NucSpn=           0           0           0           0           0           1           0           1           0           1
 AtZEff=   0.0000000   0.0000000   0.0000000   0.0000000   0.0000000   0.0000000   0.0000000   0.0000000   0.0000000   0.0000000
 NQMom=    0.0000000   0.0000000   0.0000000   0.0000000   0.0000000   0.0000000   0.0000000   0.0000000   0.0000000   0.0000000
 NMagM=    0.0000000   0.0000000   0.0000000   0.0000000   0.0000000   2.7928460   0.0000000   2.7928460   0.0000000   2.7928460
 AtZNuc=   6.0000000   6.0000000   6.0000000   6.0000000   6.0000000   1.0000000   6.0000000   1.0000000   6.0000000   1.0000000

  Atom        21          22          23          24          25          26          27          28          29          30
 IAtWgt=          12           1          12           1          12           1          12           1          12           1
 AtmWgt=  12.0000000   1.0078250  12.0000000   1.0078250  12.0000000   1.0078250  12.0000000   1.0078250  12.0000000   1.0078250
 NucSpn=           0           1           0           1           0           1           0           1           0           1
 AtZEff=   0.0000000   0.0000000   0.0000000   0.0000000   0.0000000   0.0000000   0.0000000   0.0000000   0.0000000   0.0000000
 NQMom=    0.0000000   0.0000000   0.0000000   0.0000000   0.0000000   0.0000000   0.0000000   0.0000000   0.0000000   0.0000000
 NMagM=    0.0000000   2.7928460   0.0000000   2.7928460   0.0000000   2.7928460   0.0000000   2.7928460   0.0000000   2.7928460
 AtZNuc=   6.0000000   1.0000000   6.0000000   1.0000000   6.0000000   1.0000000   6.0000000   1.0000000   6.0000000   1.0000000

  Atom        31          32          33          34          35          36          37          38          39          40
 IAtWgt=          12           1          12           1          12          12           1           1           1          16
 AtmWgt=  12.0000000   1.0078250  12.0000000   1.0078250  12.0000000  12.0000000   1.0078250   1.0078250   1.0078250  15.9949146
 NucSpn=           0           1           0           1           0           0           1           1           1           0
 AtZEff=   0.0000000   0.0000000   0.0000000   0.0000000   0.0000000   0.0000000   0.0000000   0.0000000   0.0000000   0.0000000
 NQMom=    0.0000000   0.0000000   0.0000000   0.0000000   0.0000000   0.0000000   0.0000000   0.0000000   0.0000000   0.0000000
 NMagM=    0.0000000   2.7928460   0.0000000   2.7928460   0.0000000   0.0000000   2.7928460   2.7928460   2.7928460   0.0000000
 AtZNuc=   6.0000000   1.0000000   6.0000000   1.0000000   6.0000000   6.0000000   1.0000000   1.0000000   1.0000000   8.0000000

  Atom        41          42          43          44          45          46          47          48          49          50
 IAtWgt=          16          59          59          16          16          16          16          14          14          12
 AtmWgt=  15.9949146  58.9331978  58.9331978  15.9949146  15.9949146  15.9949146  15.9949146  14.0030740  14.0030740  12.0000000
 NucSpn=           0           7           7           0           0           0           0           2           2           0
 AtZEff=   0.0000000   0.0000000   0.0000000   0.0000000   0.0000000   0.0000000   0.0000000   0.0000000   0.0000000   0.0000000
 NQMom=    0.0000000  42.0000000  42.0000000   0.0000000   0.0000000   0.0000000   0.0000000   2.0440000   2.0440000   0.0000000
 NMagM=    0.0000000   4.6270000   4.6270000   0.0000000   0.0000000   0.0000000   0.0000000   0.4037610   0.4037610   0.0000000
 AtZNuc=   8.0000000  27.0000000  27.0000000   8.0000000   8.0000000   8.0000000   8.0000000   7.0000000   7.0000000   6.0000000

  Atom        51          52          53          54          55          56          57          58          59          60
 IAtWgt=           1          12           1          12           1          12           1          12           1          12
 AtmWgt=   1.0078250  12.0000000   1.0078250  12.0000000   1.0078250  12.0000000   1.0078250  12.0000000   1.0078250  12.0000000
 NucSpn=           1           0           1           0           1           0           1           0           1           0
 AtZEff=   0.0000000   0.0000000   0.0000000   0.0000000   0.0000000   0.0000000   0.0000000   0.0000000   0.0000000   0.0000000
 NQMom=    0.0000000   0.0000000   0.0000000   0.0000000   0.0000000   0.0000000   0.0000000   0.0000000   0.0000000   0.0000000
 NMagM=    2.7928460   0.0000000   2.7928460   0.0000000   2.7928460   0.0000000   2.7928460   0.0000000   2.7928460   0.0000000
 AtZNuc=   1.0000000   6.0000000   1.0000000   6.0000000   1.0000000   6.0000000   1.0000000   6.0000000   1.0000000   6.0000000

  Atom        61          62          63          64          65          66          67          68          69          70
 IAtWgt=           1          12           1          12           1          12           1          12           1          12
 AtmWgt=   1.0078250  12.0000000   1.0078250  12.0000000   1.0078250  12.0000000   1.0078250  12.0000000   1.0078250  12.0000000
 NucSpn=           1           0           1           0           1           0           1           0           1           0
 AtZEff=   0.0000000   0.0000000   0.0000000   0.0000000   0.0000000   0.0000000   0.0000000   0.0000000   0.0000000   0.0000000
 NQMom=    0.0000000   0.0000000   0.0000000   0.0000000   0.0000000   0.0000000   0.0000000   0.0000000   0.0000000   0.0000000
 NMagM=    2.7928460   0.0000000   2.7928460   0.0000000   2.7928460   0.0000000   2.7928460   0.0000000   2.7928460   0.0000000
 AtZNuc=   1.0000000   6.0000000   1.0000000   6.0000000   1.0000000   6.0000000   1.0000000   6.0000000   1.0000000   6.0000000

  Atom        71          72          73          74          75          76          77          78          79          80
 IAtWgt=          12           1           1           1           1           1           1           1           1           1
 AtmWgt=  12.0000000   1.0078250   1.0078250   1.0078250   1.0078250   1.0078250   1.0078250   1.0078250   1.0078250   1.0078250
 NucSpn=           0           1           1           1           1           1           1           1           1           1
 AtZEff=   0.0000000   0.0000000   0.0000000   0.0000000   0.0000000   0.0000000   0.0000000   0.0000000   0.0000000   0.0000000
 NQMom=    0.0000000   0.0000000   0.0000000   0.0000000   0.0000000   0.0000000   0.0000000   0.0000000   0.0000000   0.0000000
 NMagM=    0.0000000   2.7928460   2.7928460   2.7928460   2.7928460   2.7928460   2.7928460   2.7928460   2.7928460   2.7928460
 AtZNuc=   6.0000000   1.0000000   1.0000000   1.0000000   1.0000000   1.0000000   1.0000000   1.0000000   1.0000000   1.0000000
 Leave Link  101 at Sat Sep  5 11:10:04 2015, MaxMem=  3932160000 cpu:         2.5
 (Enter /n/sw/g09_D.01/g09/l202.exe)
 Stoichiometry    C28H32Co4N4O12(1+,2)
 Framework group  C1[X(C28H32Co4N4O12)]
 Deg. of freedom   234
 Full point group                 C1      NOp   1
 Largest Abelian subgroup         C1      NOp   1
 Largest concise Abelian subgroup C1      NOp   1
                         Standard orientation:                         
 ---------------------------------------------------------------------
 Center     Atomic      Atomic             Coordinates (Angstroms)
 Number     Number       Type             X           Y           Z
 ---------------------------------------------------------------------
      1         27           0       -0.892471    1.045573    1.018685
      2         27           0       -0.939477   -0.945218   -0.981991
      3          8           0       -0.921103   -0.821519    0.884639
      4          8           0       -0.970349    0.917934   -0.836344
      5          8           0       -0.721040    2.995239    0.884206
      6          8           0       -0.720568   -2.877776   -0.873210
      7          8           0        0.787797   -0.775105    2.930637
      8          8           0       -0.623211    0.996191    2.950206
      9          7           0       -2.833810    1.112226    1.247416
     10          7           0       -2.895697   -1.149657   -1.119548
     11          6           0        0.000000   -3.429889    0.000000
     12          6           0        0.000000   -4.963177    0.000000
     13          6           0        0.000000    3.568941    0.000000
     14          6           0        0.000000    5.048258    0.000000
     15          6           0       -3.443816    0.214165    2.040816
     16          1           0       -2.913089   -0.400553    2.495409
     17          6           0       -4.792241    0.152639    2.218365
     18          1           0       -5.173341   -0.465317    2.799822
     19          6           0       -5.578930    1.042605    1.502642
     20          1           0       -6.505123    1.029652    1.588260
     21          6           0       -4.986537    1.925014    0.687128
     22          1           0       -5.508694    2.524621    0.201935
     23          6           0       -3.619212    1.959015    0.557220
     24          1           0       -3.229840    2.578591   -0.016645
     25          6           0       -3.502176   -2.150260   -0.492581
     26          1           0       -3.007902   -2.721263    0.047490
     27          6           0       -4.887060   -2.350489   -0.636732
     28          1           0       -5.295109   -3.088259   -0.240946
     29          6           0       -5.629163   -1.467540   -1.356691
     30          1           0       -6.548166   -1.577099   -1.442507
     31          6           0       -4.991332   -0.416744   -1.953023
     32          1           0       -5.472903    0.209308   -2.445382
     33          6           0       -3.625848   -0.291534   -1.813855
     34          1           0       -3.199883    0.425188   -2.225719
     35          6           0        0.131671    0.145084    3.488993
     36          6           0        0.284292    0.236293    4.997404
     37          1           0        0.807630    1.008064    5.220719
     38          1           0        0.724267   -0.551669    5.324099
     39          1           0       -0.583380    0.311851    5.403969
     40          8           0        0.721040    2.995239   -0.884206
     41          8           0        0.720568   -2.877776    0.873210
     42         27           0        0.892471    1.045573   -1.018685
     43         27           0        0.939477   -0.945218    0.981991
     44          8           0        0.921103   -0.821519   -0.884639
     45          8           0        0.970349    0.917934    0.836344
     46          8           0       -0.787797   -0.775105   -2.930637
     47          8           0        0.623211    0.996191   -2.950206
     48          7           0        2.833810    1.112226   -1.247416
     49          7           0        2.895697   -1.149657    1.119547
     50          6           0        3.443816    0.214165   -2.040816
     51          1           0        2.913089   -0.400553   -2.495409
     52          6           0        4.792241    0.152639   -2.218365
     53          1           0        5.173341   -0.465317   -2.799822
     54          6           0        5.578930    1.042605   -1.502642
     55          1           0        6.505123    1.029652   -1.588260
     56          6           0        4.986537    1.925014   -0.687128
     57          1           0        5.508694    2.524621   -0.201935
     58          6           0        3.619212    1.959015   -0.557220
     59          1           0        3.229840    2.578591    0.016645
     60          6           0        3.502176   -2.150260    0.492581
     61          1           0        3.007902   -2.721263   -0.047490
     62          6           0        4.887060   -2.350489    0.636731
     63          1           0        5.295109   -3.088259    0.240945
     64          6           0        5.629163   -1.467540    1.356690
     65          1           0        6.548166   -1.577099    1.442507
     66          6           0        4.991332   -0.416744    1.953023
     67          1           0        5.472903    0.209308    2.445382
     68          6           0        3.625848   -0.291534    1.813855
     69          1           0        3.199883    0.425188    2.225719
     70          6           0       -0.131671    0.145085   -3.488993
     71          6           0       -0.284292    0.236294   -4.997404
     72          1           0       -0.807630    1.008065   -5.220719
     73          1           0       -0.724267   -0.551668   -5.324100
     74          1           0        0.583380    0.311852   -5.403969
     75          1           0        1.002893    5.404925    0.109059
     76          1           0       -0.406999    5.404925   -0.923061
     77          1           0       -0.595895    5.404925    0.814002
     78          1           0        0.406999   -5.319843    0.923061
     79          1           0       -1.002893   -5.319843   -0.109059
     80          1           0        0.595895   -5.319843   -0.814002
 ---------------------------------------------------------------------
 Rotational constants (GHZ):      0.0967859      0.0566861      0.0566795
 Leave Link  202 at Sat Sep  5 11:10:04 2015, MaxMem=  3932160000 cpu:         0.1
 (Enter /n/sw/g09_D.01/g09/l301.exe)
 General basis read from cards:  (5D, 7F)
 Centers:       1      2     42     43      3      4      5      6      7      8
 Centers:      40     41     44     45     46     47      9     10     48     49
 6-311G(d)
 ****
 Centers:      11     12     13     14     15     17     19     21     23     25
 Centers:      27     29     31     33     35     36     50     52     54     56
 Centers:      58     60     62     64     66     68     70     71     16     18
 Centers:      20     22     24     26     28     30     32     34     37     38
 Centers:      39     51     53     55     57     59     61     63     65     67
 Centers:      69     72     73     74     75     76     77     78     79     80
 6-31G(d)
 ****
 Ernie: Thresh=  0.10000D-02 Tol=  0.10000D-05 Strict=F.
 There are   996 symmetry adapted cartesian basis functions of A   symmetry.
 There are   928 symmetry adapted basis functions of A   symmetry.
   928 basis functions,  1748 primitive gaussians,   996 cartesian basis functions
   216 alpha electrons      215 beta electrons
       nuclear repulsion energy     11764.6834756009 Hartrees.
 IExCor=  402 DFT=T Ex+Corr=B3LYP ExCW=0 ScaHFX=  0.200000
 ScaDFX=  0.800000  0.720000  1.000000  0.810000 ScalE2=  1.000000  1.000000
 IRadAn=      0 IRanWt=     -1 IRanGd=            0 ICorTp=0 IEmpDi=  4
 NAtoms=   80 NActive=   80 NUniq=   80 SFac= 1.00D+00 NAtFMM=   60 NAOKFM=T Big=T
 Integral buffers will be    131072 words long.
 Raffenetti 2 integral format.
 Two-electron integral symmetry is turned on.
 Leave Link  301 at Sat Sep  5 11:10:04 2015, MaxMem=  3932160000 cpu:         0.9
 (Enter /n/sw/g09_D.01/g09/l302.exe)
 NPDir=0 NMtPBC=     1 NCelOv=     1 NCel=       1 NClECP=     1 NCelD=      1
         NCelK=      1 NCelE2=     1 NClLst=     1 CellRange=     0.0.
 One-electron integrals computed using PRISM.
 NBasis=   928 RedAO= T EigKep=  5.07D-04  NBF=   928
 NBsUse=   928 1.00D-06 EigRej= -1.00D+00 NBFU=   928
 Precomputing XC quadrature grid using
 IXCGrd= 4 IRadAn=           0 IRanWt=          -1 IRanGd=           0 AccXCQ= 0.00D+00.
 Generated NRdTot=       0 NPtTot=           0 NUsed=           0 NTot=          32
 NSgBfM=   913   920   928   933   934 MxSgAt=    80 MxSgA2=    80.
 Leave Link  302 at Sat Sep  5 11:10:12 2015, MaxMem=  3932160000 cpu:        63.8
 (Enter /n/sw/g09_D.01/g09/l308.exe)
 Leave Link  308 at Sat Sep  5 11:10:14 2015, MaxMem=  3932160000 cpu:         8.1
 (Enter /n/sw/g09_D.01/g09/l303.exe)
 DipDrv:  MaxL=1.
 Leave Link  303 at Sat Sep  5 11:10:15 2015, MaxMem=  3932160000 cpu:         5.1
 (Enter /n/sw/g09_D.01/g09/l401.exe)
 Initial guess from the checkpoint file:  "xtal-ox-td.chk"
 B after Tr=     0.000000    0.000000    0.000000
         Rot=    1.000000    0.000000    0.000000    0.000000 Ang=   0.00 deg.
 Guess basis will be translated and rotated to current coordinates.
 JPrj=2 DoOrth=T DoCkMO=T.
 Initial guess <Sx>= 0.0000 <Sy>= 0.0000 <Sz>= 0.5000 <S**2>= 0.7609 S= 0.5054
 Leave Link  401 at Sat Sep  5 11:10:34 2015, MaxMem=  3932160000 cpu:       148.2
 (Enter /n/sw/g09_D.01/g09/l502.exe)
 UHF open shell SCF:
 Using DIIS extrapolation, IDIIS=  1040.
 Integral symmetry usage will be decided dynamically.
 IVT=     3009958 IEndB=     3009958 NGot=  3932160000 MDV=  3930159695
 LenX=  3930159695 LenY=  3929166683
 Requested convergence on RMS density matrix=1.00D-08 within 128 cycles.
 Requested convergence on MAX density matrix=1.00D-06.
 Requested convergence on             energy=1.00D-06.
 No special actions if energy rises.
 Fock matrices will be formed incrementally for  20 cycles.

 Cycle   1  Pass 1  IDiag  1:
 FoFJK:  IHMeth= 1 ICntrl=       0 DoSepK=F KAlg= 0 I1Cent=   0 FoldK=F
 IRaf= 750000000 NMat=   1 IRICut=       1 DoRegI=T DoRafI=F ISym2E= 0.
 FoFCou: FMM=T IPFlag=           0 FMFlag=      100000 FMFlg1=        2001
         NFxFlg=           0 DoJE=F BraDBF=F KetDBF=F FulRan=T
         wScrn=  0.000000 ICntrl=       0 IOpCl=  1 I1Cent=           0 NGrid=           0
         NMat0=    1 NMatS0=      1 NMatT0=    0 NMatD0=    1 NMtDS0=    0 NMtDT0=    0
 Symmetry not used in FoFCou.
 FMM levels:  10  Number of levels for PrismC:   9
 E= -7738.94619726885    
 DIIS: error= 3.77D-08 at cycle   1 NSaved=   1.
 NSaved= 1 IEnMin= 1 EnMin= -7738.94619726885     IErMin= 1 ErrMin= 3.77D-08
 ErrMax= 3.77D-08  0.00D+00 EMaxC= 1.00D-01 BMatC= 1.99D-12 BMatP= 1.99D-12
 IDIUse=1 WtCom= 1.00D+00 WtEn= 0.00D+00
 Coeff-Com:  0.100D+01
 Coeff:      0.100D+01
 Gap=     0.168 Goal=   None    Shift=    0.000
 Gap=     0.058 Goal=   None    Shift=    0.000
 RMSDP=3.08D-09 MaxDP=2.75D-07              OVMax= 2.36D-06

 SCF Done:  E(UB3LYP) =  -7738.94619727     A.U. after    1 cycles
            NFock=  1  Conv=0.31D-08     -V/T= 2.0008
 <Sx>= 0.0000 <Sy>= 0.0000 <Sz>= 0.5000 <S**2>= 0.7609 S= 0.5054
 <L.S>= 0.000000000000E+00
 KE= 7.733072930936D+03 PE=-4.185226169924D+04 EE= 1.461555909543D+04
 Annihilation of the first spin contaminant:
 S**2 before annihilation     0.7609,   after     0.7501
 Leave Link  502 at Sat Sep  5 11:14:27 2015, MaxMem=  3932160000 cpu:      1856.9
 (Enter /n/sw/g09_D.01/g09/l801.exe)
 DoSCS=F DFT=T ScalE2(SS,OS)=  1.000000  1.000000
 ExpMin= 4.42D-02 ExpMax= 2.71D+05 ExpMxC= 9.06D+03 IAcc=3 IRadAn=         5 AccDes= 0.00D+00
 HarFok:  IExCor=  205 AccDes= 0.00D+00 IRadAn=         5 IDoV=-2 UseB2=F ITyADJ=14
 ICtDFT= 12500011 ScaDFX=  1.000000  1.000000  1.000000  1.000000
 Largest valence mixing into a core orbital is  6.82D-04
 Largest core mixing into a valence orbital is  6.12D-04
 Largest valence mixing into a core orbital is  8.20D-04
 Largest core mixing into a valence orbital is  6.35D-04
 Range of M.O.s used for correlation:    81   928
 NBasis=   928 NAE=   216 NBE=   215 NFC=    80 NFV=     0
 NROrb=    848 NOA=   136 NOB=   135 NVA=   712 NVB=   713

 **** Warning!!: The smallest beta delta epsilon is  0.58399234D-01

 Leave Link  801 at Sat Sep  5 11:14:30 2015, MaxMem=  3932160000 cpu:        17.7
 (Enter /n/sw/g09_D.01/g09/l914.exe)
 UHF ground state
 MDV=  3932160000 DFT=T DoStab=F Mixed=T DoRPA=T DoScal=F NonHer=T
 Would need an additional        289118300000 words for in-memory AO integral storage.
 Making orbital integer symmetry assigments:
 Orbital symmetries:
 Alpha Orbitals:
       Occupied  (A) (A) (A) (A) (A) (A) (A) (A) (A) (A) (A) (A)
                 (A) (A) (A) (A) (A) (A) (A) (A) (A) (A) (A) (A)
                 (A) (A) (A) (A) (A) (A) (A) (A) (A) (A) (A) (A)
                 (A) (A) (A) (A) (A) (A) (A) (A) (A) (A) (A) (A)
                 (A) (A) (A) (A) (A) (A) (A) (A) (A) (A) (A) (A)
                 (A) (A) (A) (A) (A) (A) (A) (A) (A) (A) (A) (A)
                 (A) (A) (A) (A) (A) (A) (A) (A) (A) (A) (A) (A)
                 (A) (A) (A) (A) (A) (A) (A) (A) (A) (A) (A) (A)
                 (A) (A) (A) (A) (A) (A) (A) (A) (A) (A) (A) (A)
                 (A) (A) (A) (A) (A) (A) (A) (A) (A) (A) (A) (A)
                 (A) (A) (A) (A) (A) (A) (A) (A) (A) (A) (A) (A)
                 (A) (A) (A) (A) (A) (A) (A) (A) (A) (A) (A) (A)
                 (A) (A) (A) (A) (A) (A) (A) (A) (A) (A) (A) (A)
                 (A) (A) (A) (A) (A) (A) (A) (A) (A) (A) (A) (A)
                 (A) (A) (A) (A) (A) (A) (A) (A) (A) (A) (A) (A)
                 (A) (A) (A) (A) (A) (A) (A) (A) (A) (A) (A) (A)
                 (A) (A) (A) (A) (A) (A) (A) (A) (A) (A) (A) (A)
                 (A) (A) (A) (A) (A) (A) (A) (A) (A) (A) (A) (A)
       Virtual   (A) (A) (A) (A) (A) (A) (A) (A) (A) (A) (A) (A)
                 (A) (A) (A) (A) (A) (A) (A) (A) (A) (A) (A) (A)
                 (A) (A) (A) (A) (A) (A) (A) (A) (A) (A) (A) (A)
                 (A) (A) (A) (A) (A) (A) (A) (A) (A) (A) (A) (A)
                 (A) (A) (A) (A) (A) (A) (A) (A) (A) (A) (A) (A)
                 (A) (A) (A) (A) (A) (A) (A) (A) (A) (A) (A) (A)
                 (A) (A) (A) (A) (A) (A) (A) (A) (A) (A) (A) (A)
                 (A) (A) (A) (A) (A) (A) (A) (A) (A) (A) (A) (A)
                 (A) (A) (A) (A) (A) (A) (A) (A) (A) (A) (A) (A)
                 (A) (A) (A) (A) (A) (A) (A) (A) (A) (A) (A) (A)
                 (A) (A) (A) (A) (A) (A) (A) (A) (A) (A) (A) (A)
                 (A) (A) (A) (A) (A) (A) (A) (A) (A) (A) (A) (A)
                 (A) (A) (A) (A) (A) (A) (A) (A) (A) (A) (A) (A)
                 (A) (A) (A) (A) (A) (A) (A) (A) (A) (A) (A) (A)
                 (A) (A) (A) (A) (A) (A) (A) (A) (A) (A) (A) (A)
                 (A) (A) (A) (A) (A) (A) (A) (A) (A) (A) (A) (A)
                 (A) (A) (A) (A) (A) (A) (A) (A) (A) (A) (A) (A)
                 (A) (A) (A) (A) (A) (A) (A) (A) (A) (A) (A) (A)
                 (A) (A) (A) (A) (A) (A) (A) (A) (A) (A) (A) (A)
                 (A) (A) (A) (A) (A) (A) (A) (A) (A) (A) (A) (A)
                 (A) (A) (A) (A) (A) (A) (A) (A) (A) (A) (A) (A)
                 (A) (A) (A) (A) (A) (A) (A) (A) (A) (A) (A) (A)
                 (A) (A) (A) (A) (A) (A) (A) (A) (A) (A) (A) (A)
                 (A) (A) (A) (A) (A) (A) (A) (A) (A) (A) (A) (A)
                 (A) (A) (A) (A) (A) (A) (A) (A) (A) (A) (A) (A)
                 (A) (A) (A) (A) (A) (A) (A) (A) (A) (A) (A) (A)
                 (A) (A) (A) (A) (A) (A) (A) (A) (A) (A) (A) (A)
                 (A) (A) (A) (A) (A) (A) (A) (A) (A) (A) (A) (A)
                 (A) (A) (A) (A) (A) (A) (A) (A) (A) (A) (A) (A)
                 (A) (A) (A) (A) (A) (A) (A) (A) (A) (A) (A) (A)
                 (A) (A) (A) (A) (A) (A) (A) (A) (A) (A) (A) (A)
                 (A) (A) (A) (A) (A) (A) (A) (A) (A) (A) (A) (A)
                 (A) (A) (A) (A) (A) (A) (A) (A) (A) (A) (A) (A)
                 (A) (A) (A) (A) (A) (A) (A) (A) (A) (A) (A) (A)
                 (A) (A) (A) (A) (A) (A) (A) (A) (A) (A) (A) (A)
                 (A) (A) (A) (A) (A) (A) (A) (A) (A) (A) (A) (A)
                 (A) (A) (A) (A) (A) (A) (A) (A) (A) (A) (A) (A)
                 (A) (A) (A) (A) (A) (A) (A) (A) (A) (A) (A) (A)
                 (A) (A) (A) (A) (A) (A) (A) (A) (A) (A) (A) (A)
                 (A) (A) (A) (A) (A) (A) (A) (A) (A) (A) (A) (A)
                 (A) (A) (A) (A) (A) (A) (A) (A) (A) (A) (A) (A)
                 (A) (A) (A) (A) (A) (A) (A) (A) (A) (A) (A) (A)
                 (A) (A) (A) (A) (A) (A) (A) (A) (A) (A) (A) (A)
                 (A) (A) (A) (A) (A) (A) (A) (A) (A) (A) (A) (A)
                 (A) (A) (A) (A) (A) (A) (A) (A) (A) (A) (A) (A)
                 (A) (A) (A) (A) (A) (A) (A) (A) (A) (A) (A) (A)
                 (A) (A) (A) (A) (A) (A) (A) (A) (A) (A) (A) (A)
                 (A) (A) (A) (A) (A) (A) (A) (A) (A) (A) (A) (A)
                 (A) (A) (A) (A) (A) (A) (A) (A) (A) (A) (A) (A)
                 (A) (A) (A) (A) (A) (A) (A) (A) (A) (A) (A) (A)
                 (A) (A) (A) (A) (A) (A) (A) (A) (A) (A) (A) (A)
                 (A) (A) (A) (A) (A) (A) (A) (A) (A) (A) (A) (A)
                 (A) (A) (A) (A) (A) (A) (A) (A) (A) (A) (A) (A)
                 (A) (A) (A) (A) (A) (A) (A) (A) (A) (A) (A) (A)
                 (A) (A) (A) (A) (A) (A) (A) (A) (A) (A) (A) (A)
                 (A) (A) (A) (A) (A) (A) (A) (A) (A) (A) (A) (A)
                 (A) (A) (A) (A) (A) (A) (A) (A) (A) (A) (A) (A)
                 (A) (A) (A) (A) (A) (A) (A) (A) (A) (A) (A) (A)
                 (A) (A) (A) (A) (A) (A) (A) (A) (A) (A) (A) (A)
                 (A) (A) (A) (A)
 Beta  Orbitals:
       Occupied  (A) (A) (A) (A) (A) (A) (A) (A) (A) (A) (A) (A)
                 (A) (A) (A) (A) (A) (A) (A) (A) (A) (A) (A) (A)
                 (A) (A) (A) (A) (A) (A) (A) (A) (A) (A) (A) (A)
                 (A) (A) (A) (A) (A) (A) (A) (A) (A) (A) (A) (A)
                 (A) (A) (A) (A) (A) (A) (A) (A) (A) (A) (A) (A)
                 (A) (A) (A) (A) (A) (A) (A) (A) (A) (A) (A) (A)
                 (A) (A) (A) (A) (A) (A) (A) (A) (A) (A) (A) (A)
                 (A) (A) (A) (A) (A) (A) (A) (A) (A) (A) (A) (A)
                 (A) (A) (A) (A) (A) (A) (A) (A) (A) (A) (A) (A)
                 (A) (A) (A) (A) (A) (A) (A) (A) (A) (A) (A) (A)
                 (A) (A) (A) (A) (A) (A) (A) (A) (A) (A) (A) (A)
                 (A) (A) (A) (A) (A) (A) (A) (A) (A) (A) (A) (A)
                 (A) (A) (A) (A) (A) (A) (A) (A) (A) (A) (A) (A)
                 (A) (A) (A) (A) (A) (A) (A) (A) (A) (A) (A) (A)
                 (A) (A) (A) (A) (A) (A) (A) (A) (A) (A) (A) (A)
                 (A) (A) (A) (A) (A) (A) (A) (A) (A) (A) (A) (A)
                 (A) (A) (A) (A) (A) (A) (A) (A) (A) (A) (A) (A)
                 (A) (A) (A) (A) (A) (A) (A) (A) (A) (A) (A)
       Virtual   (A) (A) (A) (A) (A) (A) (A) (A) (A) (A) (A) (A)
                 (A) (A) (A) (A) (A) (A) (A) (A) (A) (A) (A) (A)
                 (A) (A) (A) (A) (A) (A) (A) (A) (A) (A) (A) (A)
                 (A) (A) (A) (A) (A) (A) (A) (A) (A) (A) (A) (A)
                 (A) (A) (A) (A) (A) (A) (A) (A) (A) (A) (A) (A)
                 (A) (A) (A) (A) (A) (A) (A) (A) (A) (A) (A) (A)
                 (A) (A) (A) (A) (A) (A) (A) (A) (A) (A) (A) (A)
                 (A) (A) (A) (A) (A) (A) (A) (A) (A) (A) (A) (A)
                 (A) (A) (A) (A) (A) (A) (A) (A) (A) (A) (A) (A)
                 (A) (A) (A) (A) (A) (A) (A) (A) (A) (A) (A) (A)
                 (A) (A) (A) (A) (A) (A) (A) (A) (A) (A) (A) (A)
                 (A) (A) (A) (A) (A) (A) (A) (A) (A) (A) (A) (A)
                 (A) (A) (A) (A) (A) (A) (A) (A) (A) (A) (A) (A)
                 (A) (A) (A) (A) (A) (A) (A) (A) (A) (A) (A) (A)
                 (A) (A) (A) (A) (A) (A) (A) (A) (A) (A) (A) (A)
                 (A) (A) (A) (A) (A) (A) (A) (A) (A) (A) (A) (A)
                 (A) (A) (A) (A) (A) (A) (A) (A) (A) (A) (A) (A)
                 (A) (A) (A) (A) (A) (A) (A) (A) (A) (A) (A) (A)
                 (A) (A) (A) (A) (A) (A) (A) (A) (A) (A) (A) (A)
                 (A) (A) (A) (A) (A) (A) (A) (A) (A) (A) (A) (A)
                 (A) (A) (A) (A) (A) (A) (A) (A) (A) (A) (A) (A)
                 (A) (A) (A) (A) (A) (A) (A) (A) (A) (A) (A) (A)
                 (A) (A) (A) (A) (A) (A) (A) (A) (A) (A) (A) (A)
                 (A) (A) (A) (A) (A) (A) (A) (A) (A) (A) (A) (A)
                 (A) (A) (A) (A) (A) (A) (A) (A) (A) (A) (A) (A)
                 (A) (A) (A) (A) (A) (A) (A) (A) (A) (A) (A) (A)
                 (A) (A) (A) (A) (A) (A) (A) (A) (A) (A) (A) (A)
                 (A) (A) (A) (A) (A) (A) (A) (A) (A) (A) (A) (A)
                 (A) (A) (A) (A) (A) (A) (A) (A) (A) (A) (A) (A)
                 (A) (A) (A) (A) (A) (A) (A) (A) (A) (A) (A) (A)
                 (A) (A) (A) (A) (A) (A) (A) (A) (A) (A) (A) (A)
                 (A) (A) (A) (A) (A) (A) (A) (A) (A) (A) (A) (A)
                 (A) (A) (A) (A) (A) (A) (A) (A) (A) (A) (A) (A)
                 (A) (A) (A) (A) (A) (A) (A) (A) (A) (A) (A) (A)
                 (A) (A) (A) (A) (A) (A) (A) (A) (A) (A) (A) (A)
                 (A) (A) (A) (A) (A) (A) (A) (A) (A) (A) (A) (A)
                 (A) (A) (A) (A) (A) (A) (A) (A) (A) (A) (A) (A)
                 (A) (A) (A) (A) (A) (A) (A) (A) (A) (A) (A) (A)
                 (A) (A) (A) (A) (A) (A) (A) (A) (A) (A) (A) (A)
                 (A) (A) (A) (A) (A) (A) (A) (A) (A) (A) (A) (A)
                 (A) (A) (A) (A) (A) (A) (A) (A) (A) (A) (A) (A)
                 (A) (A) (A) (A) (A) (A) (A) (A) (A) (A) (A) (A)
                 (A) (A) (A) (A) (A) (A) (A) (A) (A) (A) (A) (A)
                 (A) (A) (A) (A) (A) (A) (A) (A) (A) (A) (A) (A)
                 (A) (A) (A) (A) (A) (A) (A) (A) (A) (A) (A) (A)
                 (A) (A) (A) (A) (A) (A) (A) (A) (A) (A) (A) (A)
                 (A) (A) (A) (A) (A) (A) (A) (A) (A) (A) (A) (A)
                 (A) (A) (A) (A) (A) (A) (A) (A) (A) (A) (A) (A)
                 (A) (A) (A) (A) (A) (A) (A) (A) (A) (A) (A) (A)
                 (A) (A) (A) (A) (A) (A) (A) (A) (A) (A) (A) (A)
                 (A) (A) (A) (A) (A) (A) (A) (A) (A) (A) (A) (A)
                 (A) (A) (A) (A) (A) (A) (A) (A) (A) (A) (A) (A)
                 (A) (A) (A) (A) (A) (A) (A) (A) (A) (A) (A) (A)
                 (A) (A) (A) (A) (A) (A) (A) (A) (A) (A) (A) (A)
                 (A) (A) (A) (A) (A) (A) (A) (A) (A) (A) (A) (A)
                 (A) (A) (A) (A) (A) (A) (A) (A) (A) (A) (A) (A)
                 (A) (A) (A) (A) (A) (A) (A) (A) (A) (A) (A) (A)
                 (A) (A) (A) (A) (A) (A) (A) (A) (A) (A) (A) (A)
                 (A) (A) (A) (A) (A) (A) (A) (A) (A) (A) (A) (A)
                 (A) (A) (A) (A) (A)
   400 initial guesses have been made.
 Convergence on wavefunction:    0.001000000000000
 Davidson Disk Diagonalization:  ConvIn= 1.00D-03 SkipCon=T Conv= 1.00D-03.
 Max sub-space:  1600 roots to seek:   400 dimension of matrix:       193087
 Iteration     1 Dimension   400 NMult     0 NNew    400
 CISAX will form   200 AO SS matrices at one time.
 NMat=   200 NSing=   200 JSym2X= 0.
 FoFJK:  IHMeth= 1 ICntrl=       0 DoSepK=F KAlg= 0 I1Cent=   0 FoldK=F
 IRaf=         0 NMat= 400 IRICut=       1 DoRegI=T DoRafI=F ISym2E= 0.
 FoFCou: FMM=T IPFlag=           0 FMFlag=      100000 FMFlg1=        2001
         NFxFlg=           0 DoJE=F BraDBF=F KetDBF=F FulRan=T
         wScrn=  0.000000 ICntrl=       0 IOpCl=  1 I1Cent=           0 NGrid=           0
         NMat0=  400 NMatS0=    200 NMatT0=    0 NMatD0=  400 NMtDS0=    0 NMtDT0=    0
 Symmetry not used in FoFCou.
 FMM levels:  10  Number of levels for PrismC:   9
 NMat=   200 NSing=   200 JSym2X= 0.
 New state      1 was old state      6
 New state      2 was old state      7
 New state      3 was old state      4
 New state      4 was old state      5
 New state      5 was old state      2
 New state      6 was old state      3
 New state      7 was old state     15
 New state      8 was old state      1
 New state      9 was old state     13
 New state     10 was old state      8
 New state     11 was old state     12
 New state     12 was old state     14
 New state     13 was old state      9
 New state     14 was old state     11
 New state     15 was old state     10
 New state     16 was old state     19
 New state     18 was old state     37
 New state     19 was old state     18
 New state     20 was old state     16
 New state     21 was old state     95
 New state     22 was old state    163
 New state     23 was old state     21
 New state     24 was old state     20
 New state     25 was old state     52
 New state     26 was old state    199
 New state     27 was old state     77
 New state     28 was old state    134
 New state     29 was old state    109
 New state     30 was old state     55
 New state     31 was old state    169
 New state     32 was old state     25
 New state     33 was old state     90
 New state     34 was old state     23
 New state     35 was old state     22
 New state     36 was old state    182
 New state     37 was old state     24
 New state     38 was old state     87
 New state     39 was old state     64
 New state     40 was old state    175
 New state     41 was old state     26
 New state     42 was old state     30
 New state     43 was old state     29
 New state     44 was old state     72
 New state     45 was old state    107
 New state     46 was old state     27
 New state     47 was old state     28
 New state     48 was old state    184
 New state     49 was old state     82
 New state     50 was old state    154
 New state     51 was old state    246
 New state     52 was old state     91
 New state     53 was old state     31
 New state     54 was old state    195
 New state     55 was old state     85
 New state     56 was old state     34
 New state     57 was old state    146
 New state     58 was old state    135
 New state     59 was old state    197
 New state     60 was old state     62
 New state     61 was old state     79
 New state     62 was old state    172
 New state     63 was old state     44
 New state     64 was old state     36
 New state     65 was old state    196
 New state     66 was old state    185
 New state     67 was old state    210
 New state     68 was old state    143
 New state     69 was old state     32
 New state     70 was old state     33
 New state     71 was old state     41
 New state     72 was old state     35
 New state     73 was old state     47
 New state     74 was old state     39
 New state     75 was old state     45
 New state     76 was old state    101
 New state     77 was old state    155
 New state     78 was old state     84
 New state     79 was old state     42
 New state     80 was old state     38
 New state     81 was old state    192
 New state     82 was old state    142
 New state     83 was old state     48
 New state     84 was old state     43
 New state     85 was old state    139
 New state     86 was old state     40
 New state     87 was old state     50
 New state     88 was old state     65
 New state     89 was old state    180
 New state     90 was old state     49
 New state     91 was old state     58
 New state     92 was old state     61
 New state     93 was old state     68
 New state     94 was old state     51
 New state     95 was old state    126
 New state     96 was old state     78
 New state     97 was old state     60
 New state     98 was old state     70
 New state     99 was old state     69
 New state    100 was old state     59
 Excitation Energies [eV] at current iteration:
 Root      1 :     0.326400599146237
 Root      2 :     0.373828916800637
 Root      3 :     0.461114275283496
 Root      4 :     0.486029429603159
 Root      5 :     0.676405776429543
 Root      6 :     0.728061668911192
 Root      7 :     1.056533539013755
 Root      8 :     1.062767003446446
 Root      9 :     1.148858842470805
 Root     10 :     1.291739120518460
 Root     11 :     1.298537268330709
 Root     12 :     1.323226024993357
 Root     13 :     1.377183293385294
 Root     14 :     1.752939201212949
 Root     15 :     1.786944239264052
 Root     16 :     2.031813345398255
 Root     17 :     2.098914511115480
 Root     18 :     2.117142775649052
 Root     19 :     2.133853788668617
 Root     20 :     2.160807504279819
 Root     21 :     2.242120505996287
 Root     22 :     2.256437056997095
 Root     23 :     2.316221569161410
 Root     24 :     2.326555401807091
 Root     25 :     2.344247528884981
 Root     26 :     2.380808736330960
 Root     27 :     2.395495844588625
 Root     28 :     2.414142487614656
 Root     29 :     2.419541139389198
 Root     30 :     2.463039248807191
 Root     31 :     2.470475660836894
 Root     32 :     2.503515038992426
 Root     33 :     2.520760884992230
 Root     34 :     2.547857438497226
 Root     35 :     2.555386208980614
 Root     36 :     2.571117599428919
 Root     37 :     2.598885530539428
 Root     38 :     2.611781636848033
 Root     39 :     2.656583427876333
 Root     40 :     2.710430302749061
 Root     41 :     2.745790684795717
 Root     42 :     2.749216717403781
 Root     43 :     2.763241821986272
 Root     44 :     2.778869876570621
 Root     45 :     2.813277335340419
 Root     46 :     2.868714559065559
 Root     47 :     2.877244334007320
 Root     48 :     2.893608308296470
 Root     49 :     2.896358539343877
 Root     50 :     2.922166484885606
 Root     51 :     2.931656339970347
 Root     52 :     2.965469009340482
 Root     53 :     3.007909098177148
 Root     54 :     3.027547926731249
 Root     55 :     3.042356576022236
 Root     56 :     3.054260049984593
 Root     57 :     3.065592057013369
 Root     58 :     3.085411182408173
 Root     59 :     3.089084189078423
 Root     60 :     3.105855339201098
 Root     61 :     3.115024753301744
 Root     62 :     3.125860011998696
 Root     63 :     3.159589878422989
 Root     64 :     3.187594449150705
 Root     65 :     3.190274422398671
 Root     66 :     3.218746459974313
 Root     67 :     3.225399350771442
 Root     68 :     3.238211321305846
 Root     69 :     3.287569806336299
 Root     70 :     3.317496822299500
 Root     71 :     3.371982672059549
 Root     72 :     3.384714863094270
 Root     73 :     3.394170363597107
 Root     74 :     3.422538008362372
 Root     75 :     3.452447228240445
 Root     76 :     3.492030621847775
 Root     77 :     3.502623544833033
 Root     78 :     3.540760670975621
 Root     79 :     3.552278423795656
 Root     80 :     3.565486679026571
 Root     81 :     3.578230034020733
 Root     82 :     3.613684679716346
 Root     83 :     3.626937715278907
 Root     84 :     3.638158941899831
 Root     85 :     3.653024471583113
 Root     86 :     3.656169397911678
 Root     87 :     3.686743639854888
 Root     88 :     3.697775069946157
 Root     89 :     3.707065933657151
 Root     90 :     3.715244316538738
 Root     91 :     3.736593306225005
 Root     92 :     3.757919624963312
 Root     93 :     3.775291809995148
 Root     94 :     3.794082456995435
 Root     95 :     3.807064139372622
 Root     96 :     3.834748213042234
 Root     97 :     3.865368626559848
 Root     98 :     3.872498404439601
 Root     99 :     3.925494725121895
 Root    100 :     3.932018223562594
 Root    101 :     3.948012706550086
 Root    102 :     3.953807517423296
 Root    103 :     3.966725523436065
 Root    104 :     3.970647438202519
 Root    105 :     3.993118952391778
 Root    106 :     4.008574436339247
 Root    107 :     4.009928487009120
 Root    108 :     4.046077690250004
 Root    109 :     4.051983528510172
 Root    110 :     4.068476854896498
 Root    111 :     4.080841583027004
 Root    112 :     4.105909413046466
 Root    113 :     4.107149032607751
 Root    114 :     4.117557881154539
 Root    115 :     4.126973574216907
 Root    116 :     4.137035278296040
 Root    117 :     4.144506981819359
 Root    118 :     4.161376630382488
 Root    119 :     4.166966044515755
 Root    120 :     4.169676707136214
 Root    121 :     4.176349064651832
 Root    122 :     4.186387744217511
 Root    123 :     4.197157693461348
 Root    124 :     4.199826582744280
 Root    125 :     4.205598342454411
 Root    126 :     4.209927099911999
 Root    127 :     4.219464528298592
 Root    128 :     4.222988061704627
 Root    129 :     4.230924483144196
 Root    130 :     4.241967560903181
 Root    131 :     4.247015900749314
 Root    132 :     4.251632048891494
 Root    133 :     4.254584921709180
 Root    134 :     4.259571195184056
 Root    135 :     4.270192922847311
 Root    136 :     4.282429299911954
 Root    137 :     4.285220699939530
 Root    138 :     4.290697203729072
 Root    139 :     4.295177168722013
 Root    140 :     4.302595910756129
 Root    141 :     4.306098177419383
 Root    142 :     4.311535838888339
 Root    143 :     4.312437889927057
 Root    144 :     4.318737079078541
 Root    145 :     4.335657366682298
 Root    146 :     4.344000765152337
 Root    147 :     4.352912369798000
 Root    148 :     4.361126691226683
 Root    149 :     4.368033439968396
 Root    150 :     4.378827314991224
 Root    151 :     4.383648072194672
 Root    152 :     4.387661566917530
 Root    153 :     4.390081414818300
 Root    154 :     4.398761886863939
 Root    155 :     4.400163873995862
 Root    156 :     4.402674237111972
 Root    157 :     4.406337511593490
 Root    158 :     4.414324587733732
 Root    159 :     4.416291327454329
 Root    160 :     4.420231467447463
 Root    161 :     4.428824146572214
 Root    162 :     4.435206273681661
 Root    163 :     4.440682580055303
 Root    164 :     4.442975398059140
 Root    165 :     4.453576579363063
 Root    166 :     4.455693146231781
 Root    167 :     4.458150336595667
 Root    168 :     4.460913301337887
 Root    169 :     4.463070438736461
 Root    170 :     4.470111271582602
 Root    171 :     4.480362652330623
 Root    172 :     4.487280628998715
 Root    173 :     4.488916703481203
 Root    174 :     4.496382241149258
 Root    175 :     4.500570494030913
 Root    176 :     4.503105720673104
 Root    177 :     4.507649278274922
 Root    178 :     4.510895672316346
 Root    179 :     4.513103318767164
 Root    180 :     4.522043556479532
 Root    181 :     4.524696177196532
 Root    182 :     4.526903264952288
 Root    183 :     4.534448608221637
 Root    184 :     4.537745302925132
 Root    185 :     4.543630294908349
 Root    186 :     4.549822343152393
 Root    187 :     4.553898561702233
 Root    188 :     4.558772826529677
 Root    189 :     4.562540339275992
 Root    190 :     4.567058081288972
 Root    191 :     4.570253376737349
 Root    192 :     4.573079893798567
 Root    193 :     4.576940165212946
 Root    194 :     4.580600221168885
 Root    195 :     4.586607461042736
 Root    196 :     4.588597422384920
 Root    197 :     4.595849265271959
 Root    198 :     4.599547949129450
 Root    199 :     4.602640801017992
 Root    200 :     4.611293036082032
 Root    201 :     4.612518869371952
 Root    202 :     4.614214571823561
 Root    203 :     4.623696746328088
 Root    204 :     4.632323339900959
 Root    205 :     4.633132340995965
 Root    206 :     4.639125375890060
 Root    207 :     4.643407746823516
 Root    208 :     4.645919770591194
 Root    209 :     4.647577512010291
 Root    210 :     4.652465683754379
 Root    211 :     4.654349621338154
 Root    212 :     4.656831511194815
 Root    213 :     4.664335809359867
 Root    214 :     4.665246164958249
 Root    215 :     4.671981373078167
 Root    216 :     4.677613695473118
 Root    217 :     4.686847985430072
 Root    218 :     4.691631068531532
 Root    219 :     4.693173581648050
 Root    220 :     4.703502567666985
 Root    221 :     4.710931446795358
 Root    222 :     4.726567513581602
 Root    223 :     4.732969597210253
 Root    224 :     4.743901046026147
 Root    225 :     4.752602804489134
 Root    226 :     4.755335086722193
 Root    227 :     4.764406841569768
 Root    228 :     4.776922236698183
 Root    229 :     4.779831376522943
 Root    230 :     4.786874203294526
 Root    231 :     4.791607740417356
 Root    232 :     4.795719924625112
 Root    233 :     4.798087080925554
 Root    234 :     4.803553101487367
 Root    235 :     4.806165547712894
 Root    236 :     4.812120155614020
 Root    237 :     4.814773215304105
 Root    238 :     4.816717035869111
 Root    239 :     4.821651708448686
 Root    240 :     4.826368654991871
 Root    241 :     4.830058060189879
 Root    242 :     4.835228992214653
 Root    243 :     4.842796291180186
 Root    244 :     4.848207116916460
 Root    245 :     4.852181365797772
 Root    246 :     4.860705656754008
 Root    247 :     4.870731287878956
 Root    248 :     4.871689553136950
 Root    249 :     4.875156823573776
 Root    250 :     4.885097545437219
 Root    251 :     4.888598061652917
 Root    252 :     4.891330089655190
 Root    253 :     4.895492966593600
 Root    254 :     4.896695192789607
 Root    255 :     4.902756754285023
 Root    256 :     4.912480604942898
 Root    257 :     4.916677808546622
 Root    258 :     4.923332582625950
 Root    259 :     4.927043470711148
 Root    260 :     4.930383239967300
 Root    261 :     4.934515293037139
 Root    262 :     4.947207158866951
 Root    263 :     4.948878450925313
 Root    264 :     4.963090145137676
 Root    265 :     4.966624186145487
 Root    266 :     4.968585918856367
 Root    267 :     4.971641392751106
 Root    268 :     4.974393312394880
 Root    269 :     4.984863438541518
 Root    270 :     4.987345883771971
 Root    271 :     4.990053790140502
 Root    272 :     4.995209217401340
 Root    273 :     4.998197272307459
 Root    274 :     5.005656665950044
 Root    275 :     5.013611417677851
 Root    276 :     5.018331035648512
 Root    277 :     5.030706889692986
 Root    278 :     5.032946972654003
 Root    279 :     5.034933683592681
 Root    280 :     5.043101352811025
 Root    281 :     5.045107252092966
 Root    282 :     5.049721823137694
 Root    283 :     5.052014881229114
 Root    284 :     5.056644307749986
 Root    285 :     5.059665673861153
 Root    286 :     5.065026416029617
 Root    287 :     5.073049873299079
 Root    288 :     5.076737822095046
 Root    289 :     5.086898221336626
 Root    290 :     5.089833395012904
 Root    291 :     5.095349847309564
 Root    292 :     5.098849491837835
 Root    293 :     5.102628281429965
 Root    294 :     5.104776160412150
 Root    295 :     5.106982105023278
 Root    296 :     5.111524768588122
 Root    297 :     5.112556153361673
 Root    298 :     5.120221566474053
 Root    299 :     5.127459692190407
 Root    300 :     5.130029054928631
 Root    301 :     5.130787114126183
 Root    302 :     5.138343701742335
 Root    303 :     5.140303117217510
 Root    304 :     5.146680249091014
 Root    305 :     5.150013415916173
 Root    306 :     5.152551018572277
 Root    307 :     5.153763642294440
 Root    308 :     5.157593012081597
 Root    309 :     5.163062973962475
 Root    310 :     5.164153337077790
 Root    311 :     5.167651948554247
 Root    312 :     5.174653048526451
 Root    313 :     5.179339864821335
 Root    314 :     5.180836583927170
 Root    315 :     5.187832760893881
 Root    316 :     5.190292339812538
 Root    317 :     5.194127804151654
 Root    318 :     5.195673944378634
 Root    319 :     5.199873713590319
 Root    320 :     5.203389400062971
 Root    321 :     5.208642381577997
 Root    322 :     5.210292271466813
 Root    323 :     5.212274707173960
 Root    324 :     5.214746958269922
 Root    325 :     5.221180138982924
 Root    326 :     5.223023849539159
 Root    327 :     5.224710186838531
 Root    328 :     5.228911293940053
 Root    329 :     5.233128182851443
 Root    330 :     5.236260844328276
 Root    331 :     5.239137394759042
 Root    332 :     5.242160713313846
 Root    333 :     5.245496889520112
 Root    334 :     5.247900092953409
 Root    335 :     5.251362247233375
 Root    336 :     5.254707752566611
 Root    337 :     5.258085378109862
 Root    338 :     5.260325682818303
 Root    339 :     5.267620410217961
 Root    340 :     5.270119561226742
 Root    341 :     5.273733139401746
 Root    342 :     5.278977668152419
 Root    343 :     5.281497221501913
 Root    344 :     5.282686566455639
 Root    345 :     5.283401241642522
 Root    346 :     5.294385329579363
 Root    347 :     5.298414906802517
 Root    348 :     5.302820820412811
 Root    349 :     5.306637719327178
 Root    350 :     5.310265259784004
 Root    351 :     5.311738690508087
 Root    352 :     5.318858961403873
 Root    353 :     5.326415993026663
 Root    354 :     5.330471969854704
 Root    355 :     5.332139960548099
 Root    356 :     5.335271255348752
 Root    357 :     5.338180608926271
 Root    358 :     5.346296963463971
 Root    359 :     5.348960735767615
 Root    360 :     5.351926818709046
 Root    361 :     5.352763414265070
 Root    362 :     5.355687308927783
 Root    363 :     5.360764628037038
 Root    364 :     5.376838143209378
 Root    365 :     5.380261017600028
 Root    366 :     5.387148701996628
 Root    367 :     5.391103753174689
 Root    368 :     5.393291484208180
 Root    369 :     5.397567237994407
 Root    370 :     5.402333451627928
 Root    371 :     5.404816546238500
 Root    372 :     5.406973797259769
 Root    373 :     5.411970863931545
 Root    374 :     5.415455200070511
 Root    375 :     5.420145864037062
 Root    376 :     5.422224578267620
 Root    377 :     5.426510521231095
 Root    378 :     5.428420572832999
 Root    379 :     5.432690506278001
 Root    380 :     5.437249584220811
 Root    381 :     5.442892822354577
 Root    382 :     5.447418595248742
 Root    383 :     5.452262127566794
 Root    384 :     5.460177491911965
 Root    385 :     5.461345998331105
 Root    386 :     5.472516450616675
 Root    387 :     5.492186585523222
 Root    388 :     5.497775073471495
 Root    389 :     5.499469180315008
 Root    390 :     5.511796408318782
 Root    391 :     5.556459695093044
 Root    392 :     5.557675525102793
 Root    393 :     5.637849405227328
 Root    394 :     5.891452358922264
 Root    395 :     6.087911740469059
 Root    396 :     6.176945367567307
 Root    397 :     6.301012792777788
 Root    398 :     6.486296808221820
 Root    399 :     6.571212284266318
 Root    400 :     6.627722326946914
 Iteration     2 Dimension   600 NMult   400 NNew    200
 CISAX will form   200 AO SS matrices at one time.
 NMat=   200 NSing=   200 JSym2X= 0.
 New state      1 was old state     12
 Root      1 not converged, maximum delta is    1.142534309764245
 New state      2 was old state      1
 Root      2 not converged, maximum delta is    0.288004068037749
 New state      3 was old state      2
 Root      3 not converged, maximum delta is    0.113251417074406
 New state      4 was old state      3
 Root      4 not converged, maximum delta is    0.184159370850537
 New state      5 was old state      4
 Root      5 not converged, maximum delta is    0.263169381489715
 Root      6 not converged, maximum delta is    0.375269502137855
 New state      7 was old state      5
 Root      7 not converged, maximum delta is    0.322098090588486
 Root      8 not converged, maximum delta is    0.606282261061989
 New state      9 was old state     10
 Root      9 not converged, maximum delta is    0.403652743507799
 New state     10 was old state      7
 Root     10 not converged, maximum delta is    0.100986125530034
 New state     11 was old state      9
 Root     11 not converged, maximum delta is    0.111434683640148
 New state     12 was old state     11
 Root     12 not converged, maximum delta is    0.266008517735378
 Root     13 not converged, maximum delta is    0.201376922000462
 New state     14 was old state     21
 Root     14 not converged, maximum delta is    0.279544285104984
 New state     15 was old state     25
 Root     15 not converged, maximum delta is    0.339660622043872
 New state     16 was old state     22
 Root     16 not converged, maximum delta is    0.265264670203386
 New state     17 was old state     30
 Root     17 not converged, maximum delta is    0.306644580924703
 New state     18 was old state     26
 Root     18 not converged, maximum delta is    0.350605866437914
 New state     19 was old state     31
 Root     19 not converged, maximum delta is    0.248175785774224
 New state     20 was old state     27
 Root     20 not converged, maximum delta is    0.333696423836716
 New state     21 was old state     29
 Root     21 not converged, maximum delta is    0.481083912632451
 New state     22 was old state     36
 Root     22 not converged, maximum delta is    0.269421327570029
 New state     23 was old state     50
 Root     23 not converged, maximum delta is    0.359950999316864
 New state     24 was old state     33
 Root     24 not converged, maximum delta is    0.329654211172791
 New state     25 was old state     18
 Root     25 not converged, maximum delta is    0.398972683717393
 New state     26 was old state     39
 Root     26 not converged, maximum delta is    0.276108963692070
 New state     27 was old state     49
 Root     27 not converged, maximum delta is    0.533748484943589
 New state     28 was old state     40
 Root     28 not converged, maximum delta is    0.244627485889912
 New state     29 was old state     14
 Root     29 not converged, maximum delta is    0.113984887300308
 New state     30 was old state     62
 Root     30 not converged, maximum delta is    0.366149103010380
 New state     31 was old state     60
 Root     31 not converged, maximum delta is    0.312376624137395
 New state     32 was old state     38
 Root     32 not converged, maximum delta is    0.265005513214047
 New state     33 was old state     15
 Root     33 not converged, maximum delta is    0.128355994431538
 New state     34 was old state     41
 Root     34 not converged, maximum delta is    0.359484460378909
 New state     35 was old state     45
 Root     35 not converged, maximum delta is    0.241935193933807
 New state     36 was old state     16
 Root     36 not converged, maximum delta is    0.464895403814291
 New state     37 was old state     51
 Root     37 not converged, maximum delta is    0.286023471197338
 New state     38 was old state     48
 Root     38 not converged, maximum delta is    0.360114103501986
 New state     39 was old state     44
 Root     39 not converged, maximum delta is    0.603181064129535
 New state     40 was old state     19
 Root     40 not converged, maximum delta is    0.401122444135538
 New state     41 was old state     17
 Root     41 not converged, maximum delta is    0.108025931250217
 New state     42 was old state     20
 Root     42 not converged, maximum delta is    0.354672493362277
 New state     43 was old state     42
 Root     43 not converged, maximum delta is    0.364016030341703
 New state     44 was old state     58
 Root     44 not converged, maximum delta is    0.339498404638629
 New state     45 was old state     23
 Root     45 not converged, maximum delta is    0.670154781686967
 No map to state     46
 New state     47 was old state     52
 Root     47 not converged, maximum delta is    0.351384285230062
 New state     48 was old state     53
 Root     48 not converged, maximum delta is    0.585828655047936
 New state     49 was old state     55
 Root     49 not converged, maximum delta is    0.511912077506012
 New state     50 was old state     24
 Root     50 not converged, maximum delta is    0.402207202825568
 New state     51 was old state     57
 Root     51 not converged, maximum delta is    0.478996589165188
 New state     52 was old state     59
 Root     52 not converged, maximum delta is    0.229218382245286
 New state     53 was old state     65
 Root     53 not converged, maximum delta is    0.306415633731999
 Root     54 not converged, maximum delta is    0.314222570753131
 New state     55 was old state     63
 Root     55 not converged, maximum delta is    0.210962351414356
 New state     56 was old state     68
 Root     56 not converged, maximum delta is    0.294670834575783
 New state     57 was old state     67
 Root     57 not converged, maximum delta is    0.205145805917501
 New state     58 was old state     32
 Root     58 not converged, maximum delta is    0.064880773418513
 New state     59 was old state     34
 Root     59 not converged, maximum delta is    0.230902320129899
 New state     60 was old state     35
 Root     60 not converged, maximum delta is    0.422899016909248
 New state     61 was old state     37
 Root     61 not converged, maximum delta is    0.374220618270210
 New state     62 was old state     43
 Root     62 not converged, maximum delta is    0.613861829158571
 No map to state     63
 New state     64 was old state     47
 Root     64 not converged, maximum delta is    0.557568395725623
 New state     65 was old state     46
 Root     65 not converged, maximum delta is    0.176316969124701
 New state     66 was old state     73
 Root     66 not converged, maximum delta is    0.643066757928763
 New state     67 was old state     56
 Root     67 not converged, maximum delta is    0.261697200678487
 New state     68 was old state     74
 Root     68 not converged, maximum delta is    0.489870207998173
 New state     69 was old state     64
 Root     69 not converged, maximum delta is    0.402889206316607
 New state     70 was old state     75
 Root     70 not converged, maximum delta is    0.392707098306838
 New state     71 was old state     76
 Root     71 not converged, maximum delta is    0.326231923685387
 New state     72 was old state     81
 Root     72 not converged, maximum delta is    0.232629097490291
 New state     73 was old state     77
 Root     73 not converged, maximum delta is    0.242803360749240
 New state     74 was old state     85
 Root     74 not converged, maximum delta is    0.262451301629657
 New state     75 was old state     78
 Root     75 not converged, maximum delta is    0.245164647565200
 New state     76 was old state     84
 Root     76 not converged, maximum delta is    0.436429197099512
 New state     77 was old state     70
 Root     77 not converged, maximum delta is    0.403945025351771
 New state     78 was old state     86
 Root     78 not converged, maximum delta is    0.412100766087724
 New state     79 was old state     89
 Root     79 not converged, maximum delta is    0.511554821575366
 New state     80 was old state     69
 Root     80 not converged, maximum delta is    0.413877458086319
 New state     81 was old state     80
 Root     81 not converged, maximum delta is    0.365482848975364
 New state     82 was old state     88
 Root     82 not converged, maximum delta is    0.370602805942433
 New state     83 was old state     90
 Root     83 not converged, maximum delta is    0.330345683426059
 New state     84 was old state     71
 Root     84 not converged, maximum delta is    0.465052781904409
 New state     85 was old state     72
 Root     85 not converged, maximum delta is    0.128370719108831
 New state     86 was old state     93
 Root     86 not converged, maximum delta is    0.649223064793573
 New state     87 was old state     94
 Root     87 not converged, maximum delta is    0.473644491981966
 New state     88 was old state     79
 Root     88 not converged, maximum delta is    0.278017632428728
 New state     89 was old state     92
 Root     89 not converged, maximum delta is    0.246437875749836
 New state     90 was old state     91
 Root     90 not converged, maximum delta is    0.768176397544873
 New state     91 was old state     82
 Root     91 not converged, maximum delta is    0.348810252056240
 New state     92 was old state     83
 Root     92 not converged, maximum delta is    0.353871162780927
 New state     93 was old state     87
 Root     93 not converged, maximum delta is    0.221341103604047
 New state     94 was old state     98
 Root     94 not converged, maximum delta is    0.761096178151632
 New state     95 was old state     97
 Root     95 not converged, maximum delta is    0.327552340961411
 Root     96 not converged, maximum delta is    0.442340375106356
 New state     97 was old state     95
 Root     97 not converged, maximum delta is    0.183025590927959
 New state     98 was old state    100
 Root     98 not converged, maximum delta is    0.518592589886679
 Root     99 not converged, maximum delta is    0.569210142588179
 New state    100 was old state    103
 Root    100 not converged, maximum delta is    0.506819048476128
 Excitation Energies [eV] at current iteration:
 Root      1 :    -0.194270217157095   Change is   -1.517496242150452
 Root      2 :     0.234078255335156   Change is   -0.092322343811081
 Root      3 :     0.300720441120096   Change is   -0.073108475680541
 Root      4 :     0.402952943563997   Change is   -0.058161331719499
 Root      5 :     0.450532798257755   Change is   -0.035496631345404
 Root      6 :     0.494273754235985   Change is   -0.233787914675207
 Root      7 :     0.569710579841693   Change is   -0.106695196587850
 Root      8 :     0.646449170336243   Change is   -0.416317833110204
 Root      9 :     0.760291863582819   Change is   -0.531447256935641
 Root     10 :     0.983467508853498   Change is   -0.073066030160258
 Root     11 :     1.101276720027127   Change is   -0.047582122443678
 Root     12 :     1.229853430714949   Change is   -0.068683837615761
 Root     13 :     1.294577864515565   Change is   -0.082605428869729
 Root     14 :     1.325540908246819   Change is   -0.916579597749469
 Root     15 :     1.347531796095913   Change is   -0.996715732789069
 Root     16 :     1.358766984307770   Change is   -0.897670072689324
 Root     17 :     1.412418478104321   Change is   -1.050620770702870
 Root     18 :     1.437504498962480   Change is   -0.943304237368480
 Root     19 :     1.448634187254168   Change is   -1.021841473582726
 Root     20 :     1.470009025718792   Change is   -0.925486818869833
 Root     21 :     1.475589812846890   Change is   -0.943951326542308
 Root     22 :     1.503418214886720   Change is   -1.067699384542199
 Root     23 :     1.516671658538261   Change is   -1.405494826347345
 Root     24 :     1.549522811996578   Change is   -0.971238072995653
 Root     25 :     1.636162088480689   Change is   -0.480980687168363
 Root     26 :     1.700239738320181   Change is   -0.956343689556153
 Root     27 :     1.718905446682507   Change is   -1.177453092661370
 Root     28 :     1.737238521053630   Change is   -0.973191781695431
 Root     29 :     1.747428545173185   Change is   -0.005510656039763
 Root     30 :     1.751880394171543   Change is   -1.373979617827153
 Root     31 :     1.765540065213101   Change is   -1.340315273987997
 Root     32 :     1.780684302710007   Change is   -0.831097334138026
 Root     33 :     1.784786214546017   Change is   -0.002158024718035
 Root     34 :     1.790546049712216   Change is   -0.955244635083501
 Root     35 :     1.810750484492900   Change is   -1.002526850847519
 Root     36 :     1.838084611713485   Change is   -0.193728733684770
 Root     37 :     1.873495662815730   Change is   -1.058160677154617
 Root     38 :     1.888058053665554   Change is   -1.005550254630916
 Root     39 :     1.931218276891529   Change is   -0.847651599679092
 Root     40 :     2.034216505490478   Change is   -0.099637283178139
 Root     41 :     2.055702549046975   Change is   -0.043211962068505
 Root     42 :     2.081379842493047   Change is   -0.079427661786771
 Root     43 :     2.167096643210481   Change is   -0.582120074193300
 Root     44 :     2.190519766106689   Change is   -0.894891416301484
 Root     45 :     2.204011247350773   Change is   -0.112210321810637
 Root     46 :     2.212944952106388
 Root     47 :     2.282802149109129   Change is   -0.682666860231353
 Root     48 :     2.294423521504017   Change is   -0.713485576673131
 Root     49 :     2.301423876699649   Change is   -0.740932699322587
 Root     50 :     2.310706470326370   Change is   -0.015848931480721
 Root     51 :     2.317929154791404   Change is   -0.747662902221965
 Root     52 :     2.331294301944108   Change is   -0.757789887134315
 Root     53 :     2.349064433237843   Change is   -0.841209989160828
 Root     54 :     2.351507619974454   Change is   -0.676040306756794
 Root     55 :     2.369556872593356   Change is   -0.790033005829633
 Root     56 :     2.394354755438063   Change is   -0.843856565867783
 Root     57 :     2.429311256173382   Change is   -0.796088094598059
 Root     58 :     2.481117825229993   Change is   -0.022397213762434
 Root     59 :     2.520584768588048   Change is   -0.027272669909178
 Root     60 :     2.531773902420002   Change is   -0.023612306560611
 Root     61 :     2.536116280729118   Change is   -0.062769249810311
 Root     62 :     2.677654949661289   Change is   -0.085586872324982
 Root     63 :     2.708177523937858
 Root     64 :     2.796100975897502   Change is   -0.081143358109818
 Root     65 :     2.820722006770204   Change is   -0.047992552295355
 Root     66 :     2.875979452017051   Change is   -0.518190911580056
 Root     67 :     2.963018872783432   Change is   -0.091241177201161
 Root     68 :     2.991587402678259   Change is   -0.430950605684113
 Root     69 :     3.005067251757426   Change is   -0.182527197393280
 Root     70 :     3.057430146534777   Change is   -0.395017081705668
 Root     71 :     3.080333034942164   Change is   -0.411697586905612
 Root     72 :     3.087306993648099   Change is   -0.490923040372634
 Root     73 :     3.093803871002860   Change is   -0.408819673830173
 Root     74 :     3.104306368220481   Change is   -0.548718103362631
 Root     75 :     3.145571519270193   Change is   -0.395189151705428
 Root     76 :     3.158036202929533   Change is   -0.480122738970298
 Root     77 :     3.172746146751578   Change is   -0.144750675547922
 Root     78 :     3.187461869563093   Change is   -0.468707528348586
 Root     79 :     3.221318844535806   Change is   -0.485747089121345
 Root     80 :     3.233873643373481   Change is   -0.053696162962818
 Root     81 :     3.239686910905086   Change is   -0.325799768121484
 Root     82 :     3.271303246681109   Change is   -0.426471823265048
 Root     83 :     3.278418465837686   Change is   -0.436825850701053
 Root     84 :     3.288732132850078   Change is   -0.083250539209472
 Root     85 :     3.307085771889916   Change is   -0.077629091204353
 Root     86 :     3.339744830866568   Change is   -0.435546979128580
 Root     87 :     3.406764713880237   Change is   -0.387317743115198
 Root     88 :     3.464431322465817   Change is   -0.087847101329838
 Root     89 :     3.501343736199160   Change is   -0.256575888764152
 Root     90 :     3.558722490701051   Change is   -0.177870815523954
 Root     91 :     3.617470232302577   Change is    0.003785552586231
 Root     92 :     3.640427728555487   Change is    0.013490013276581
 Root     93 :     3.652484931834702   Change is   -0.034258708020186
 Root     94 :     3.697802018298550   Change is   -0.174696386141051
 Root     95 :     3.712593392181065   Change is   -0.152775234378783
 Root     96 :     3.742581836790413   Change is   -0.092166376251821
 Root     97 :     3.763142572024512   Change is   -0.043921567348110
 Root     98 :     3.793042101308323   Change is   -0.138976122254270
 Root     99 :     3.824851654089508   Change is   -0.100643071032387
 Root    100 :     3.841249807446582   Change is   -0.125475715989483
 Iteration     3 Dimension   800 NMult   600 NNew    200
 CISAX will form   200 AO SS matrices at one time.
 NMat=   200 NSing=   200 JSym2X= 0.
 Root      1 not converged, maximum delta is    0.299994222468921
 Root      2 not converged, maximum delta is    0.089636782697160
 Root      3 not converged, maximum delta is    0.031715631630675
 Root      4 not converged, maximum delta is    0.047307118145441
 Root      5 not converged, maximum delta is    0.206566331633042
 Root      6 not converged, maximum delta is    0.180930362086483
 Root      7 not converged, maximum delta is    0.073115652939636
 Root      8 not converged, maximum delta is    0.087691840586738
 Root      9 not converged, maximum delta is    0.037001533032445
 Root     10 not converged, maximum delta is    0.003217308071114
 Root     11 not converged, maximum delta is    0.004450683742525
 Root     12 not converged, maximum delta is    0.018772207901958
 Root     13 not converged, maximum delta is    0.111956595353469
 Root     14 not converged, maximum delta is    0.173425314330305
 Root     15 not converged, maximum delta is    0.204980710332886
 Root     16 not converged, maximum delta is    0.144778038498610
 Root     17 not converged, maximum delta is    0.045733914159727
 Root     18 not converged, maximum delta is    0.166444688522361
 Root     19 not converged, maximum delta is    0.136102019618068
 Root     20 not converged, maximum delta is    0.066403430997366
 Root     21 not converged, maximum delta is    0.046895346248816
 Root     22 not converged, maximum delta is    0.052294082311785
 Root     23 not converged, maximum delta is    0.055198713647302
 Root     24 not converged, maximum delta is    0.035234863256026
 Root     25 not converged, maximum delta is    0.024826217675026
 Root     26 not converged, maximum delta is    0.016703766064304
 Root     27 not converged, maximum delta is    0.013971766140464
 Root     28 not converged, maximum delta is    0.062516384369073
 New state     29 was old state     30
 Root     29 not converged, maximum delta is    0.413882438355306
 New state     30 was old state     31
 Root     30 not converged, maximum delta is    0.365629596972514
 New state     31 was old state     29
 Root     31 not converged, maximum delta is    0.191823997275909
 Root     32 not converged, maximum delta is    0.073114622400687
 New state     33 was old state     34
 Root     33 not converged, maximum delta is    0.510365479702295
 New state     34 was old state     33
 Root     34 not converged, maximum delta is    0.186922421844973
 Root     35 not converged, maximum delta is    0.099862504719573
 Root     36 not converged, maximum delta is    0.020955837444823
 Root     37 not converged, maximum delta is    0.017475070532257
 Root     38 not converged, maximum delta is    0.035020418444424
 Root     39 not converged, maximum delta is    0.028851127061763
[...]
  Beta virt. eigenvalues --    0.12323   0.12651   0.12802   0.13119   0.13442
  Beta virt. eigenvalues --    0.13655   0.14059   0.14400   0.14894   0.15171
  Beta virt. eigenvalues --    0.15257   0.15491   0.15784   0.15936   0.16924
  Beta virt. eigenvalues --    0.17117   0.18341   0.18856   0.19563   0.19808
  Beta virt. eigenvalues --    0.20279   0.20677   0.20781   0.21391   0.21524
  Beta virt. eigenvalues --    0.21988   0.22165   0.22534   0.22891   0.22958
  Beta virt. eigenvalues --    0.23232   0.23535   0.23718   0.24890   0.25429
  Beta virt. eigenvalues --    0.25588   0.26037   0.28066   0.28381   0.30995
  Beta virt. eigenvalues --    0.31047   0.31402   0.31525   0.31900   0.34938
  Beta virt. eigenvalues --    0.36441   0.36601   0.36687   0.37724   0.37847
  Beta virt. eigenvalues --    0.38032   0.38511   0.39842   0.39908   0.40243
  Beta virt. eigenvalues --    0.40576   0.40727   0.42765   0.43080   0.44012
  Beta virt. eigenvalues --    0.44056   0.44516   0.44684   0.45033   0.45266
  Beta virt. eigenvalues --    0.45480   0.45916   0.46308   0.46492   0.46631
  Beta virt. eigenvalues --    0.46663   0.47187   0.47340   0.47697   0.47973
  Beta virt. eigenvalues --    0.48223   0.48491   0.48705   0.48821   0.49012
  Beta virt. eigenvalues --    0.49547   0.49644   0.49742   0.50154   0.50377
  Beta virt. eigenvalues --    0.50554   0.50750   0.50838   0.50943   0.51137
  Beta virt. eigenvalues --    0.51172   0.51512   0.51682   0.51934   0.52038
  Beta virt. eigenvalues --    0.52288   0.52801   0.52836   0.53106   0.53489
  Beta virt. eigenvalues --    0.53816   0.54164   0.54538   0.54725   0.55631
  Beta virt. eigenvalues --    0.55917   0.56100   0.56489   0.56883   0.57306
  Beta virt. eigenvalues --    0.58200   0.59119   0.60108   0.60285   0.61079
  Beta virt. eigenvalues --    0.61652   0.61819   0.62231   0.63465   0.63587
  Beta virt. eigenvalues --    0.63758   0.63858   0.64506   0.64782   0.67446
  Beta virt. eigenvalues --    0.68235   0.68502   0.68987   0.70284   0.70616
  Beta virt. eigenvalues --    0.70897   0.71616   0.72830   0.73163   0.74885
  Beta virt. eigenvalues --    0.75645   0.76897   0.77576   0.77830   0.77901
  Beta virt. eigenvalues --    0.78607   0.78886   0.79349   0.80027   0.80703
  Beta virt. eigenvalues --    0.81231   0.81457   0.81698   0.81817   0.82381
  Beta virt. eigenvalues --    0.82469   0.82692   0.83120   0.83187   0.83554
  Beta virt. eigenvalues --    0.83754   0.83951   0.84372   0.84673   0.85102
  Beta virt. eigenvalues --    0.85192   0.85513   0.85818   0.86061   0.86396
  Beta virt. eigenvalues --    0.86479   0.86667   0.86876   0.86947   0.87176
  Beta virt. eigenvalues --    0.87648   0.88149   0.88782   0.88920   0.89619
  Beta virt. eigenvalues --    0.89776   0.89982   0.90304   0.90588   0.90625
  Beta virt. eigenvalues --    0.90850   0.91230   0.91420   0.92078   0.92308
  Beta virt. eigenvalues --    0.93052   0.93655   0.94069   0.94288   0.94601
  Beta virt. eigenvalues --    0.94812   0.95117   0.95315   0.95575   0.96036
  Beta virt. eigenvalues --    0.96353   0.96597   0.97420   0.97983   0.99202
  Beta virt. eigenvalues --    1.00238   1.00354   1.01130   1.01198   1.01551
  Beta virt. eigenvalues --    1.02933   1.03126   1.04178   1.04293   1.05169
  Beta virt. eigenvalues --    1.05535   1.05651   1.06032   1.06794   1.06921
  Beta virt. eigenvalues --    1.07650   1.07889   1.08661   1.09778   1.09813
  Beta virt. eigenvalues --    1.11015   1.11210   1.11572   1.12167   1.12666
  Beta virt. eigenvalues --    1.13091   1.13549   1.14355   1.15036   1.15541
  Beta virt. eigenvalues --    1.15977   1.16385   1.17076   1.17453   1.17807
  Beta virt. eigenvalues --    1.18048   1.18353   1.19058   1.20343   1.22214
  Beta virt. eigenvalues --    1.23042   1.23399   1.24015   1.24590   1.26340
  Beta virt. eigenvalues --    1.26732   1.27192   1.27513   1.28432   1.28923
  Beta virt. eigenvalues --    1.29164   1.30358   1.31417   1.32725   1.33424
  Beta virt. eigenvalues --    1.34001   1.34395   1.35384   1.36025   1.36202
  Beta virt. eigenvalues --    1.36742   1.36974   1.37252   1.37544   1.37712
  Beta virt. eigenvalues --    1.37825   1.38103   1.38196   1.38313   1.38619
  Beta virt. eigenvalues --    1.39049   1.39335   1.39373   1.40002   1.40488
  Beta virt. eigenvalues --    1.40788   1.41418   1.41615   1.42173   1.42458
  Beta virt. eigenvalues --    1.43109   1.43370   1.44247   1.44792   1.45920
  Beta virt. eigenvalues --    1.47307   1.48153   1.50322   1.51168   1.51512
  Beta virt. eigenvalues --    1.51783   1.51887   1.52715   1.54080   1.54779
  Beta virt. eigenvalues --    1.55774   1.56252   1.56993   1.57546   1.57726
  Beta virt. eigenvalues --    1.58708   1.58832   1.59730   1.63074   1.64316
  Beta virt. eigenvalues --    1.64480   1.65172   1.65699   1.66604   1.69013
  Beta virt. eigenvalues --    1.70488   1.70559   1.70693   1.72048   1.74504
  Beta virt. eigenvalues --    1.74577   1.74782   1.74927   1.76162   1.76426
  Beta virt. eigenvalues --    1.76947   1.78847   1.79518   1.79734   1.80497
  Beta virt. eigenvalues --    1.82200   1.85638   1.85900   1.86126   1.87328
  Beta virt. eigenvalues --    1.87557   1.88931   1.91103   1.91224   1.94927
  Beta virt. eigenvalues --    1.95640   1.95962   1.96238   1.96493   1.96910
  Beta virt. eigenvalues --    1.98691   1.98783   1.98861   2.01583   2.01774
  Beta virt. eigenvalues --    2.02031   2.02613   2.02857   2.03239   2.03835
  Beta virt. eigenvalues --    2.04393   2.04588   2.05060   2.05521   2.05686
  Beta virt. eigenvalues --    2.05978   2.06345   2.07079   2.07200   2.07345
  Beta virt. eigenvalues --    2.08410   2.09159   2.09343   2.09932   2.10126
  Beta virt. eigenvalues --    2.10725   2.10859   2.11261   2.11640   2.12101
  Beta virt. eigenvalues --    2.12301   2.12987   2.13047   2.13705   2.14233
  Beta virt. eigenvalues --    2.14630   2.15070   2.15945   2.15963   2.16398
  Beta virt. eigenvalues --    2.17478   2.18137   2.18471   2.19308   2.19472
  Beta virt. eigenvalues --    2.22302   2.22932   2.23133   2.23288   2.25783
  Beta virt. eigenvalues --    2.27028   2.28464   2.28794   2.30122   2.30885
  Beta virt. eigenvalues --    2.31099   2.31318   2.31962   2.32387   2.34356
  Beta virt. eigenvalues --    2.36454   2.36883   2.37847   2.38155   2.40469
  Beta virt. eigenvalues --    2.41796   2.42088   2.43247   2.43481   2.45344
  Beta virt. eigenvalues --    2.46023   2.49575   2.49780   2.52940   2.53913
  Beta virt. eigenvalues --    2.56323   2.56483   2.57863   2.58111   2.61146
  Beta virt. eigenvalues --    2.61889   2.62158   2.63220   2.64577   2.64618
  Beta virt. eigenvalues --    2.64964   2.65073   2.65459   2.65484   2.66127
  Beta virt. eigenvalues --    2.66293   2.67085   2.68435   2.68466   2.69625
  Beta virt. eigenvalues --    2.69696   2.70809   2.71304   2.71534   2.73420
  Beta virt. eigenvalues --    2.73433   2.73638   2.73716   2.74164   2.74226
  Beta virt. eigenvalues --    2.74743   2.75180   2.75486   2.75515   2.75975
  Beta virt. eigenvalues --    2.76638   2.76756   2.77071   2.77506   2.77990
  Beta virt. eigenvalues --    2.78190   2.78413   2.78721   2.79767   2.80217
  Beta virt. eigenvalues --    2.80936   2.82377   2.82609   2.83553   2.84054
  Beta virt. eigenvalues --    2.84267   2.86613   2.87041   2.87586   2.89435
  Beta virt. eigenvalues --    2.90804   2.91927   2.93143   2.96439   2.97009
  Beta virt. eigenvalues --    2.99866   3.00247   3.00933   3.01261   3.01907
  Beta virt. eigenvalues --    3.02026   3.02113   3.02813   3.03021   3.03289
  Beta virt. eigenvalues --    3.07689   3.09091   3.09672   3.10021   3.10207
  Beta virt. eigenvalues --    3.10439   3.11740   3.12628   3.12921   3.13145
  Beta virt. eigenvalues --    3.13671   3.16215   3.16650   3.17132   3.17597
  Beta virt. eigenvalues --    3.18531   3.19190   3.22951   3.24336   3.25193
  Beta virt. eigenvalues --    3.25996   3.26402   3.27471   3.27890   3.28466
  Beta virt. eigenvalues --    3.29454   3.29641   3.29863   3.31064   3.31775
  Beta virt. eigenvalues --    3.37568   3.38993   3.40139   3.40962   3.41788
  Beta virt. eigenvalues --    3.44167   3.44672   3.44923   3.47341   3.48276
  Beta virt. eigenvalues --    3.48558   3.49821   3.49953   3.51237   3.51944
  Beta virt. eigenvalues --    3.52266   3.59982   3.62081   3.62959   3.63533
  Beta virt. eigenvalues --    3.64736   3.67284   3.67499   3.69521   3.70027
  Beta virt. eigenvalues --    3.71172   3.81957   3.82471   3.83550   4.10811
  Beta virt. eigenvalues --    4.11234   4.12091   4.17882   4.19616   4.23461
  Beta virt. eigenvalues --    4.25129   4.49008   4.49497   4.53301   4.53697
  Beta virt. eigenvalues --    4.76569   4.79870   4.80280   4.81975   4.83994
  Beta virt. eigenvalues --    4.84846   4.85204   4.85774   4.86590   4.86722
  Beta virt. eigenvalues --    4.86775   4.87367   4.90981   4.93242   4.93821
  Beta virt. eigenvalues --    4.94509   4.98020   4.98791   4.99598   4.99803
  Beta virt. eigenvalues --    5.02217   5.03490   5.03609   5.05324   5.09505
  Beta virt. eigenvalues --    5.09583   5.14925   5.15847   5.31253   5.31731
  Beta virt. eigenvalues --    5.32996   5.35048   5.36317   5.42862   5.44112
  Beta virt. eigenvalues --    5.46459   6.03272   6.03760   6.06833   6.07941
  Beta virt. eigenvalues --    6.08678   6.11257   6.16321   6.16634   6.20704
  Beta virt. eigenvalues --    6.22289   6.22472   6.26481   6.61115   6.63807
  Beta virt. eigenvalues --    6.69017   6.69857   6.71931   6.75209   6.75296
  Beta virt. eigenvalues --    6.76191   7.98112   7.98741   8.07402   8.08371
  Beta virt. eigenvalues --    8.08877   8.09587   8.17092   8.22766   8.29132
  Beta virt. eigenvalues --    8.34066   8.34378   8.54871  27.76918  28.03469
  Beta virt. eigenvalues --   28.04336  28.05880  33.67631  33.68343  33.75364
  Beta virt. eigenvalues --   33.76434  33.76932  33.77928  33.83087  33.87184
  Beta virt. eigenvalues --   33.90391  33.96012  33.96361  34.11564  35.35205
  Beta virt. eigenvalues --   35.35652  35.38633  35.38721  49.78258  49.80485
  Beta virt. eigenvalues --   49.80710  49.81881  49.82276  49.83551  49.84166
  Beta virt. eigenvalues --   49.84467  49.87097  49.89835  49.90602  50.04849
  Beta virt. eigenvalues --  153.47030 153.67871 153.68907 153.70169 804.20839
  Beta virt. eigenvalues --  804.41984 804.43045 804.44353
          Condensed to atoms (all electrons):
          Atomic-Atomic Spin Densities.
 Mulliken charges and spin densities:
               1          2
     1  Co   1.340560   0.298032
     2  Co   1.328560   0.089783
     3  O   -0.794030   0.123611
     4  O   -0.802060   0.088409
     5  O   -0.518183   0.010625
     6  O   -0.506852   0.007533
     7  O   -0.507544   0.007967
     8  O   -0.499772   0.005571
     9  N   -0.498847  -0.001946
    10  N   -0.492535   0.000712
    11  C    0.495435  -0.000557
    12  C   -0.502964  -0.000311
    13  C    0.511973  -0.000871
    14  C   -0.504055  -0.000429
    15  C    0.109621  -0.001375
    16  H    0.163659  -0.000183
    17  C   -0.110465   0.000580
    18  H    0.136751  -0.000030
    19  C   -0.046848  -0.001189
    20  H    0.143061   0.000053
    21  C   -0.116253   0.000552
    22  H    0.134957  -0.000015
    23  C    0.106043  -0.001423
    24  H    0.161994  -0.000084
    25  C    0.112335  -0.000734
    26  H    0.158458  -0.000083
    27  C   -0.129720   0.000363
    28  H    0.135787  -0.000001
    29  C   -0.039950  -0.000601
    30  H    0.142614   0.000030
    31  C   -0.120419   0.000330
    32  H    0.132495   0.000005
    33  C    0.103227  -0.000495
    34  H    0.159905  -0.000169
    35  C    0.461574  -0.000027
    36  C   -0.482335  -0.000735
    37  H    0.198184   0.000183
    38  H    0.193629   0.000064
    39  H    0.190650  -0.000078
    40  O   -0.518132   0.008130
    41  O   -0.508694   0.007412
    42  Co   1.325626   0.080315
    43  Co   1.327589   0.110739
    44  O   -0.807450   0.077392
    45  O   -0.804684   0.074201
    46  O   -0.507130   0.012169
    47  O   -0.500844   0.006785
    48  N   -0.495351   0.001984
    49  N   -0.490228   0.001411
    50  C    0.108064  -0.000727
    51  H    0.163141  -0.000162
    52  C   -0.111158   0.000447
    53  H    0.135176   0.000007
    54  C   -0.048034  -0.000786
    55  H    0.141384   0.000038
    56  C   -0.116739   0.000430
    57  H    0.133006   0.000018
    58  C    0.103337  -0.000819
    59  H    0.159826  -0.000087
    60  C    0.114766  -0.000774
    61  H    0.157997  -0.000087
    62  C   -0.129520   0.000364
    63  H    0.136127   0.000008
    64  C   -0.039374  -0.000624
    65  H    0.142725   0.000032
    66  C   -0.119995   0.000394
    67  H    0.132598   0.000011
    68  C    0.103894  -0.000619
    69  H    0.159601  -0.000194
    70  C    0.459649  -0.001032
    71  C   -0.482682  -0.000136
    72  H    0.196763   0.000160
    73  H    0.191885   0.000108
    74  H    0.190335  -0.000090
    75  H    0.191251  -0.000222
    76  H    0.198616   0.000363
    77  H    0.192092   0.000129
    78  H    0.190327   0.000216
    79  H    0.182734  -0.000103
    80  H    0.192868   0.000134
 Sum of Mulliken charges =   1.00000   1.00000
 Mulliken charges and spin densities with hydrogens summed into heavy atoms:
               1          2
     1  Co   1.340560   0.298032
     2  Co   1.328560   0.089783
     3  O   -0.794030   0.123611
     4  O   -0.802060   0.088409
     5  O   -0.518183   0.010625
     6  O   -0.506852   0.007533
     7  O   -0.507544   0.007967
     8  O   -0.499772   0.005571
     9  N   -0.498847  -0.001946
    10  N   -0.492535   0.000712
    11  C    0.495435  -0.000557
    12  C    0.062965  -0.000065
    13  C    0.511973  -0.000871
    14  C    0.077904  -0.000159
    15  C    0.273280  -0.001558
    17  C    0.026286   0.000549
    19  C    0.096213  -0.001136
    21  C    0.018705   0.000537
    23  C    0.268037  -0.001507
    25  C    0.270793  -0.000817
    27  C    0.006067   0.000363
    29  C    0.102664  -0.000571
    31  C    0.012076   0.000335
    33  C    0.263132  -0.000664
    35  C    0.461574  -0.000027
    36  C    0.100127  -0.000566
    40  O   -0.518132   0.008130
    41  O   -0.508694   0.007412
    42  Co   1.325626   0.080315
    43  Co   1.327589   0.110739
    44  O   -0.807450   0.077392
    45  O   -0.804684   0.074201
    46  O   -0.507130   0.012169
    47  O   -0.500844   0.006785
    48  N   -0.495351   0.001984
    49  N   -0.490228   0.001411
    50  C    0.271205  -0.000889
    52  C    0.024018   0.000454
    54  C    0.093350  -0.000748
    56  C    0.016267   0.000448
    58  C    0.263163  -0.000906
    60  C    0.272763  -0.000861
    62  C    0.006607   0.000372
    64  C    0.103351  -0.000592
    66  C    0.012602   0.000405
    68  C    0.263495  -0.000813
    70  C    0.459649  -0.001032
    71  C    0.096302   0.000042
 Electronic spatial extent (au):  <R**2>=          22676.6598
 Charge=              1.0000 electrons
 Dipole moment (field-independent basis, Debye):
    X=             -0.2737    Y=             -0.4774    Z=              0.2988  Tot=              0.6262
 Quadrupole moment (field-independent basis, Debye-Ang):
   XX=           -138.6497   YY=           -260.5118   ZZ=           -268.0729
   XY=             -0.5822   XZ=             -0.1029   YZ=              0.1617
 Traceless Quadrupole moment (field-independent basis, Debye-Ang):
   XX=             83.7617   YY=            -38.1004   ZZ=            -45.6614
   XY=             -0.5822   XZ=             -0.1029   YZ=              0.1617
 Octapole moment (field-independent basis, Debye-Ang**2):
  XXX=             -4.8641  YYY=              4.4967  ZZZ=              3.2622  XYY=              0.3113
  XXY=            -21.2139  XXZ=              2.0349  XZZ=             -0.6544  YZZ=              8.2742
  YYZ=             -1.7799  XYZ=             34.3418
 Hexadecapole moment (field-independent basis, Debye-Ang**3):
 XXXX=         -10870.4558 YYYY=          -5593.2616 ZZZZ=          -5610.2119 XXXY=             -4.4695
 XXXZ=              3.6792 YYYX=             -4.6448 YYYZ=             -0.3085 ZZZX=              1.7557
 ZZZY=             -0.9920 XXYY=          -3236.5731 XXZZ=          -3322.9896 YYZZ=          -2270.3357
 XXYZ=              2.9821 YYXZ=             22.9364 ZZXY=             -7.0497
 N-N= 1.176468347560D+04 E-N=-4.185226166408D+04  KE= 7.733072930936D+03
 Leave Link  601 at Sun Sep  6 18:24:56 2015, MaxMem=  3932160000 cpu:        17.7
 (Enter /n/sw/g09_D.01/g09/l9999.exe)
 1\1\GINC-HOLY2A01108\SP\UB3LYP TD-FC\Gen\C28H32Co4N4O12(1+,2)\ROOT\06-
 Sep-2015\0\\#p gen 5d scf=tight ub3lyp guess=read td=(nstates=100)\\Mn
  xtal structure\\1,2\Co,0,6.080599,-4.84985,9.315492\Co,0,4.860884,-6.
 436422,11.306283\O,0,5.978316,-4.941099,11.182584\O,0,4.922006,-6.3006
 64,9.443131\O,0,6.13949,-5.059624,7.365826\O,0,5.101777,-6.477955,13.2
 38841\O,0,8.565778,-4.299626,11.13617\O,0,7.4388,-3.450363,9.364874\N,
 0,4.64925,-3.518552,9.248839\N,0,3.201164,-5.39189,11.510722\C,0,6.199
 ,-6.199,13.790954\C,0,6.199,-6.199,15.324242\C,0,6.199,-6.199,6.792124
 \C,0,6.199,-6.199,5.312807\C,0,4.625694,-2.518034,10.1469\H,0,5.322461
 ,-2.464722,10.761618\C,0,3.642532,-1.578265,10.208426\H,0,3.678487,-0.
 883977,10.826382\C,0,2.584983,-1.691087,9.31846\H,0,1.888215,-1.074907
 ,9.331413\C,0,2.581264,-2.699045,8.436051\H,0,1.873338,-2.782111,7.836
 444\C,0,3.607818,-3.611537,8.40205\H,0,3.583022,-4.304586,7.782474\C,0
 ,3.082143,-4.52775,12.511325\H,0,3.799987,-4.383933,13.082328\C,0,1.87
 9537,-3.826023,12.711554\H,0,1.784072,-3.265633,13.449324\C,0,0.855462
 ,-3.9686,11.828605\H,0,0.06323,-3.494996,11.938164\C,0,1.017876,-4.826
 541,10.777809\H,0,0.338465,-4.939363,10.151757\C,0,2.201885,-5.520829,
 10.652599\H,0,2.302309,-6.104775,9.935877\C,0,8.36617,-3.461522,10.215
 981\C,0,9.380327,-2.334543,10.124772\H,0,9.934517,-2.463483,9.353001\H
 ,0,9.928318,-2.330824,10.912734\H,0,8.920361,-1.493959,10.049214\O,0,6
 .25851,-7.338376,7.365826\O,0,7.296223,-5.920045,13.238841\Co,0,6.3174
 01,-7.54815,9.315492\Co,0,7.537116,-5.961578,11.306283\O,0,6.419684,-7
 .456901,11.182584\O,0,7.475994,-6.097336,9.443131\O,0,3.832222,-8.0983
 74,11.13617\O,0,4.9592,-8.947637,9.364874\N,0,7.74875,-8.879448,9.2488
 39\N,0,9.196836,-7.00611,11.510722\C,0,7.772306,-9.879966,10.1469\H,0,
 7.075539,-9.933278,10.761618\C,0,8.755468,-10.819735,10.208426\H,0,8.7
 19513,-11.514023,10.826382\C,0,9.813017,-10.706913,9.31846\H,0,10.5097
 85,-11.323093,9.331413\C,0,9.816736,-9.698955,8.436051\H,0,10.524662,-
 9.615889,7.836444\C,0,8.790182,-8.786463,8.40205\H,0,8.814978,-8.09341
 4,7.782474\C,0,9.315857,-7.87025,12.511325\H,0,8.598013,-8.014067,13.0
 82328\C,0,10.518463,-8.571977,12.711554\H,0,10.613928,-9.132367,13.449
 324\C,0,11.542538,-8.4294,11.828605\H,0,12.33477,-8.903004,11.938164\C
 ,0,11.380124,-7.571459,10.777809\H,0,12.059535,-7.458637,10.151757\C,0
 ,10.196115,-6.877171,10.652599\H,0,10.095691,-6.293225,9.935877\C,0,4.
 03183,-8.936478,10.215981\C,0,3.017673,-10.063457,10.124772\H,0,2.4634
 83,-9.934517,9.353001\H,0,2.469682,-10.067176,10.912734\H,0,3.477639,-
 10.904041,10.049214\H,0,7.07265134,-6.70340284,4.95614033\H,0,5.325348
 66,-6.70340284,4.95614033\H,0,6.199,-5.19019433,4.95614033\H,0,7.07265
 134,-5.69459716,15.68090867\H,0,5.32534866,-5.69459716,15.68090867\H,0
 ,6.199,-7.20780567,15.68090867\\Version=EM64L-G09RevD.01\State=2-A\HF=
 -7738.9461973\S2=0.760883\S2-1=0.\S2A=0.750101\RMSD=3.077e-09\PG=C01 [
 X(C28H32Co4N4O12)]\\@


 In the race for quality, there is no finish line.
                               -- David T. Kearns
 Job cpu time:       9 days 23 hours 54 minutes 24.9 seconds.
 File lengths (MBytes):  RWF=  21165 Int=      0 D2E=      0 Chk=   3216 Scr=      1
 Normal termination of Gaussian 09 at Sun Sep  6 18:25:44 2015.
