
                                 *****************
                                 * O   R   C   A *
                                 *****************

           --- An Ab Initio, DFT and Semiempirical electronic structure package ---

                  #######################################################
                  #                        -***-                        #
                  #  Department of molecular theory and spectroscopy    #
                  #              Directorship: Frank Neese              #
                  # Max Planck Institute for Chemical Energy Conversion #
                  #                  D-45470 Muelheim/Ruhr              #
                  #                       Germany                       #
                  #                                                     #
                  #                  All rights reserved                #
                  #                        -***-                        #
                  #######################################################


                         Program Version 3.0.0 -  RELEASE  -


 With contributions from (in alphabetic order):
   Ute Becker             : Parallelization
   Dmytro Bykov           : SCF Hessian
   Dmitry Ganyushin       : Spin-Orbit,Spin-Spin,Magnetic field MRCI
   Andreas Hansen         : Spin unrestricted coupled pair/coupled cluster methods
   Dimitrios Liakos       : Extrapolation schemes; parallel MDCI
   Robert Izsak           : Overlap fitted RIJCOSX, COSX-SCS-MP3
   Christian Kollmar      : KDIIS, OOCD, Brueckner-CCSD(T), CCSD density
   Simone Kossmann        : Meta GGA functionals, TD-DFT gradient, OOMP2, MP2 Hessian
   Taras Petrenko         : DFT Hessian,TD-DFT gradient, ASA and ECA modules, normal mode analysis, Resonance Raman, ABS, FL, XAS/XES, NRVS
   Christoph Reimann      : Effective Core Potentials
   Michael Roemelt        : Restricted open shell CIS
   Christoph Riplinger    : Improved optimizer, TS searches, QM/MM, DLPNO-CCSD
   Barbara Sandhoefer     : DKH picture change effects
   Igor Schapiro          : Molecular dynamics
   Kantharuban Sivalingam : CASSCF convergence, NEVPT2
   Boris Wezisla          : Elementary symmetry handling
   Frank Wennmohs         : Technical directorship


 We gratefully acknowledge several colleagues who have allowed us to
 interface, adapt or use parts of their codes:
   Stefan Grimme, W. Hujo, H. Kruse, T. Risthaus : VdW corrections, initial TS optimization,
                                                   DFT functionals, gCP
   Ed Valeev                                     : LibInt (2-el integral package), F12 methods
   Garnet Chan, S. Sharma, R. Olivares           : DMRG
   Ulf Ekstrom                                   : XCFun DFT Library
   Mihaly Kallay                                 : mrcc  (arbitrary order and MRCC methods)
   Andreas Klamt, Michael Diedenhofen            : otool_cosmo (COSMO solvation model)
   Frank Weinhold                                : gennbo (NPA and NBO analysis)


 Your calculation uses the libint2 library for the computation of 2-el integrals
 For citations please refer to: http://libint.valeyev.net

 This ORCA versions uses:
   CBLAS   interface :  Fast vector & matrix operations
   LAPACKE interface :  Fast linear algebra routines
   SCALAPACK package :  Parallel linear algebra routines


This is DEFAULT-BASIS-4 based on the Ahlrichs basis sets
Cite in your paper:
H - Kr: A. Schaefer, H. Horn and R. Ahlrichs, J. Chem. Phys. 97, 2571 (1992).
   

Your calculation utilizes the basis: Ahlrichs-TZV
Cite in your paper:
H - Kr: A. Schaefer, H. Horn and R. Ahlrichs, J. Chem. Phys. 97, 2571 (1992).

The def2-TZV basis will be loaded
Cite in your paper:
 	F. Weigend, R. Ahlrichs, Phys. Chem. Chem. Phys. 2005, 7, 3297.

Your calculation utilizes pol. fcns from the TurboMole library
Cite in your paper:
The Ahlrichs (2d,2p) polarization functions were obtained from the TurboMole
basis set library under ftp.chemie.uni-karlsruhe.de/pub/basen

Your calculation utilizes the basis: Ahlrichs-TZV
Cite in your paper:
H - Kr: A. Schaefer, H. Horn and R. Ahlrichs, J. Chem. Phys. 97, 2571 (1992).

The def2-TZV basis will be loaded
Cite in your paper:
 	F. Weigend, R. Ahlrichs, Phys. Chem. Chem. Phys. 2005, 7, 3297.

Your calculation utilizes pol. fcns from the TurboMole library
Cite in your paper:
The Ahlrichs (2d2fg,3p2df) polarization functions were obtained from the TurboMole
basis set library under ftp.chemie.uni-karlsruhe.de/pub/basen
Sc-Zn: 2p functions from Wachters JCP, 52 (1970), 1033
       plus one f-function from the TurboMole library



*****************************************
The coordinations will be read from file: peroxide.xyz
*****************************************


================================================================================
                                        WARNINGS
                       Please study these warnings very carefully!
================================================================================
Now building the actual basis set
WARNING: RI approximation not ON but aux-basis present - now normalizing!


INFO   : the flag for use of LIBINT has been found!

================================================================================
                                       INPUT FILE
================================================================================
NAME = peroxide_peroxide.inp
|  1> !PAL8
|  2> ! DFT-Energy
|  3> * xyzfile -2 1 peroxide.xyz *
|  4> 
|  5> 
|  6>                          ****END OF INPUT****
================================================================================

                       ****************************
                       * Single Point Calculation *
                       ****************************

---------------------------------
CARTESIAN COORDINATES (ANGSTROEM)
---------------------------------
  O     18.389891    0.155412   18.640666
  O     15.860977    1.647700   22.583952
  O     11.289665    0.493368   21.179667
  O     15.787638    6.490353   21.752726
  O     16.326803    1.169939   23.933490
  O     15.837797   -3.606565   24.995170
  N     16.849442    0.587877   20.279077
  H     16.591897    0.945426   21.255325
  O     14.190648    3.109459   27.923474
  N     13.247695    1.493983   21.818663
  H     14.234447    1.444380   22.228822
  N     16.552228   -1.481716   24.531837
  H     16.376188   -0.491100   24.169405
  O     21.054990    1.848811   25.128210
  N     18.772442    1.841081   24.950305
  H     17.877211    1.624265   24.409346
  N     14.970206    1.784034   26.227810
  H     15.415109    1.661576   25.264611
  N     14.801769    2.738968   19.469691
  N     16.167269    4.232465   21.788003
  H     16.069825    3.271346   22.249970
  N     17.386702    0.067116   27.055738
  C     15.744229    0.409632   19.351712
  H     14.875913    0.046265   19.919923
  H     16.029255   -0.350401   18.608039
  C     14.363433   -2.219830   23.713015
  C     13.454972   -3.287511   23.625593
  H     13.761462   -4.215747   24.107353
  C     12.232178   -3.156673   22.959272
  C     18.118716    0.466895   19.821791
  C     12.394450    0.443296   21.764822
  C     21.662549    0.862967   21.126362
  C     20.543430    0.629480   20.313185
  H     20.640300    0.358505   19.259787
  C     14.296771    5.416327   26.399871
  H     13.930206    5.379912   27.425474
  C     15.204116    4.149626   24.539979
  H     15.537970    3.202044   24.107566
  C     12.825867   -0.834954   22.450739
  C     13.355351    2.713193   19.644621
  H     12.953461    1.800181   19.178801
  H     12.874215    3.574613   19.128482
  C     11.939461   -1.915510   22.374659
  H     11.007788   -1.735978   21.834294
  C     14.353369    6.605518   25.665873
  C     15.647516   -2.488207   24.467288
  C     16.228867    0.396829   27.876634
  H     16.430731    1.330719   28.423474
  H     16.043761   -0.389625   28.642843
  C     15.372293    1.709362   18.610397
  H     16.290451    2.099000   18.144193
  H     14.676568    1.450410   17.780705
  C     19.237483    0.729896   20.806638
  C     18.613464    2.149176   26.361938
  H     17.679663    2.716620   26.484553
  H     19.459477    2.777689   26.679822
  C     14.713182    4.192229   25.851138
  C     14.929965    0.601447   27.072211
  H     14.751222   -0.272286   26.428984
  H     14.091277    0.704336   27.777851
  C     23.077346    0.737681   20.529958
  C     14.606717    2.980226   26.750649
  C     14.046645   -0.987758   23.126962
  H     14.744232   -0.148376   23.200185
  C     17.776195   -1.679163   25.290735
  H     18.555740   -1.038772   24.853716
  H     18.082154   -2.732417   25.195287
  C     21.433160    1.207405   22.462475
  H     22.244794    1.403526   23.162705
  C     15.764770    5.394297   22.355907
  C     15.269362    5.331430   23.784823
  C     18.574411    0.888925   27.248753
  H     19.467799    0.290180   27.013333
  H     18.673092    1.207127   28.311259
  C     12.903218    2.720541   21.118644
  H     13.377036    3.560997   21.645871
  H     11.810185    2.846790   21.151282
  C     14.843769    6.537532   24.353310
  H     14.915174    7.421716   23.716524
  C     17.611381   -1.347269   26.786878
  H     16.753001   -1.925471   27.162114
  H     18.510195   -1.720079   27.328127
  C     15.426210    4.054402   19.412240
  H     14.671881    4.820622   19.648926
  H     15.797907    4.276325   18.386417
  C     20.132626    1.318799   22.981049
  C     19.030592    1.076969   22.151123
  H     18.014157    1.150376   22.548756
  C     23.279250   -0.691494   19.975793
  H     22.535844   -0.930758   19.202862
  H     24.283004   -0.795626   19.530367
  H     23.178513   -1.436999   20.778523
  C     20.019957    1.690070   24.443591
  C     13.899097    7.960966   26.239374
  C     11.214290   -4.307872   22.852326
  C     16.596764    4.234971   20.399219
  H     17.322229    3.419913   20.264565
  H     17.092056    5.194914   20.186940
  C     23.240569    1.754637   19.376641
  H     22.492244    1.589736   18.589161
  H     23.116460    2.783600   19.745605
  H     24.242272    1.668187   18.922644
  C     24.176438    1.009753   21.572117
  H     24.101778    2.025912   21.985729
  H     24.124438    0.300703   22.411177
  H     25.167547    0.907298   21.101618
  C     13.406682    7.845117   27.692658
  H     13.097531    8.836941   28.060009
  H     12.543518    7.168954   27.777100
  H     14.195567    7.467628   28.359454
  C      9.889041   -3.885045   23.527601
  H      9.138799   -4.689775   23.447009
  H     10.049478   -3.668358   24.594224
  H      9.472339   -2.981051   23.062148
  C     15.080976    8.957303   26.207318
  H     15.460481    9.097534   25.185752
  H     14.767875    9.941277   26.595344
  H     15.914247    8.591618   26.825642
  C     10.944234   -4.622954   21.363159
  H     11.868807   -4.941604   20.859261
  H     10.201213   -5.432785   21.268476
  H     10.560002   -3.742294   20.830212
  C     12.742716    8.520584   25.378850
  H     13.048717    8.648496   24.331266
  H     11.881571    7.836095   25.394100
  H     12.412674    9.500855   25.762432
  C     11.713138   -5.593733   23.534696
  H     12.647491   -5.957826   23.083098
  H     11.896801   -5.438564   24.607830
  H     10.954907   -6.386648   23.431454

----------------------------
CARTESIAN COORDINATES (A.U.)
----------------------------
  NO LB      ZA    FRAG    MASS        X           Y           Z
   0 O     8.0000    0    15.999         34.751857023120394          0.293686866297318         35.225754137881921
   1 O     8.0000    0    15.999         29.972902759625878          3.113701152508479         42.677484410510949
   2 O     8.0000    0    15.999         21.334375274070450          0.932330956153408         40.023769962634859
   3 O     8.0000    0    15.999         29.834312373331798         12.264990179120833         41.106695545468789
   4 O     8.0000    0    15.999         30.853185742519418          2.210863432780859         45.227742103134808
   5 O     8.0000    0    15.999         29.929098967404503         -6.815419428947843         47.234025843019921
   6 N     7.0000    0    14.007         31.840830467903011          1.110925813890518         38.321901153039640
   7 H     1.0000    0     1.008         31.354140507407749          1.786596641151391         40.166743068013723
   8 O     8.0000    0    15.999         26.816439315365859          5.876025950285526         52.767718717766343
   9 N     7.0000    0    14.007         25.034515472352627          2.823218912610696         41.231298421420028
  10 H     1.0000    0     1.008         26.899207229122737          2.729483244542601         42.006385064045674
  11 N     7.0000    0    14.007         31.279178409494847         -2.800037468547925         46.358452857424446
  12 H     1.0000    0     1.008         30.946510468215266         -0.928044709625639         45.673555633598909
  13 O     8.0000    0    15.999         39.788165069652827          3.493746545493331         47.485434284983754
  14 N     7.0000    0    14.007         35.474773880941058          3.479139087551779         47.149244059078363
  15 H     1.0000    0     1.008         33.783031893525219          3.069416271204060         46.126978919657297
  16 N     7.0000    0    14.007         28.289589537420330          3.371335876632822         49.563377893439586
  17 H     1.0000    0     1.008         29.130335018265750          3.139924429543425         47.743195147294152
  18 N     7.0000    0    14.007         27.971288885741053          5.175898586389005         36.792383657535346
  19 N     7.0000    0    14.007         30.551710042874781          7.998199540534708         41.173358025185223
  20 H     1.0000    0     1.008         30.367568635891075          6.181947605230373         42.046350442830075
  21 N     7.0000    0    14.007         32.856104409624997          0.126830886159501         51.127934904821707
  22 C     6.0000    0    12.011         29.752280751255153          0.774092992919476         36.569435189175323
  23 H     1.0000    0     1.008         28.111402255961519          0.087428974477150         37.643199952323982
  24 H     1.0000    0     1.008         30.290902873442985         -0.662161451385774         35.164097581815241
  25 C     6.0000    0    12.011         27.142954518615515         -4.194871034196258         44.811104959695442
  26 C     6.0000    0    12.011         25.426212805664836         -6.212494571010665         44.645901085820682
  27 H     1.0000    0     1.008         26.005393524835242         -7.966607555773674         45.556294802644537
  28 C     6.0000    0    12.011         23.115466942770141         -5.965246971673628         43.386737173637108
  29 C     6.0000    0    12.011         34.239410643086210          0.882303006059927         37.457757234346403
  30 C     6.0000    0    12.011         23.422116341031952          0.837707888835469         41.129552310137178
  31 C     6.0000    0    12.011         40.936284697669393          1.630771739675509         39.923038687142217
  32 C     6.0000    0    12.011         38.821456700432876          1.189544619328723         38.386355671524051
  33 H     1.0000    0     1.008         39.004514627861433          0.677476560749489         36.395723734966609
  34 C     6.0000    0    12.011         27.016981986377829         10.235374385232548         49.888525848735249
  35 H     1.0000    0     1.008         26.324274256915796         10.166559374070248         51.826635012528691
  36 C     6.0000    0    12.011         28.731614556504997          7.841656747163367         46.373840297838747
  37 H     1.0000    0     1.008         29.362507820314168          6.050986002001552         45.556696957658289
  38 C     6.0000    0    12.011         24.237375421636990         -1.577833546721460         42.425749045121030
  39 C     6.0000    0    12.011         25.237954888487323          5.127192297234582         37.122954222135796
  40 H     1.0000    0     1.008         24.478494429211150          3.401848149846611         36.242680980676710
  41 H     1.0000    0     1.008         24.328740814800771          6.755040022099492         36.147592947294719
  42 C     6.0000    0    12.011         22.562311018189895         -3.619788519744851         42.281978672931345
  43 H     1.0000    0     1.008         20.801705535784691         -3.280522386732618         41.260836680988092
  44 C     6.0000    0    12.011         27.123935948978847         12.482620386682949         48.501470443818953
  45 C     6.0000    0    12.011         29.569519061962438         -4.702030342447819         46.236472884867112
  46 C     6.0000    0    12.011         30.668114662069712          0.749897823647160         52.679204296472292
  47 H     1.0000    0     1.008         31.049582275539731          2.514694416360769         53.712581720778317
  48 H     1.0000    0     1.008         30.318314012384441         -0.736284164007295         54.127129799130934
  49 C     6.0000    0    12.011         29.049424232027320          3.230225297714489         35.168553201588196
  50 H     1.0000    0     1.008         30.784491640077970          3.966534467983302         34.287555929201964
  51 H     1.0000    0     1.008         27.734694351967839          2.740876944957495         33.600662335505575
  52 C     6.0000    0    12.011         36.353574232160632          1.379303192465782         39.318848322336592
  53 C     6.0000    0    12.011         35.174350128468667          4.061354063836199         49.816844034936601
  54 H     1.0000    0     1.008         33.409722082090227          5.133668658459963         50.048551230504721
  55 H     1.0000    0     1.008         36.773082127593852          5.249072140732558         50.417557502794942
  56 C     6.0000    0    12.011         27.803884154435945          7.922164781756946         48.851571119188712
  57 C     6.0000    0    12.011         28.213545398698567          1.136570093226897         51.159064231907735
  58 H     1.0000    0     1.008         27.875770460981791         -0.514546735015439         49.943542525644531
  59 H     1.0000    0     1.008         26.628654027254235          1.331002322472908         52.492530815641111
  60 C     6.0000    0    12.011         43.609863142080407          1.394015463666578         38.795997824142695
  61 C     6.0000    0    12.011         27.602694691501092          5.631811552713181         50.551400230671582
  62 C     6.0000    0    12.011         26.544311632886057         -1.866591234729544         43.703625018348106
  63 H     1.0000    0     1.008         27.862561427760433         -0.280390648460020         43.841995678941124
  64 C     6.0000    0    12.011         33.592139358060798         -3.173158432099408         47.792563165726136
  65 H     1.0000    0     1.008         35.065267551466668         -1.962994876075127         46.966715722324878
  66 H     1.0000    0     1.008         34.170319198748452         -5.163519193937288         47.612191904754162
  67 C     6.0000    0    12.011         40.502802923218013          2.281663839222759         42.447926821470375
  68 H     1.0000    0     1.008         42.036567710658119          2.652280066597135         43.771169688071083
  69 C     6.0000    0    12.011         29.791097670167868         10.193744457320422         42.246541705501407
  70 C     6.0000    0    12.011         28.854911677520064         10.074942757900576         44.946801649079390
  71 C     6.0000    0    12.011         35.100549468308508          1.679824725469530         51.492679757734052
  72 H     1.0000    0     1.008         36.788808977772916          0.548360828779651         51.047802097537257
  73 H     1.0000    0     1.008         35.287029057365316          2.281138552531609         53.500526329892665
  74 C     6.0000    0    12.011         24.383547792056898          5.141076709223722         39.908453617042554
  75 H     1.0000    0     1.008         25.278934219341828          6.729309436184196         40.904767991326352
  76 H     1.0000    0     1.008         22.318014492284792          5.379653650923139         39.970130294550877
  77 C     6.0000    0    12.011         28.050658769983837         12.354144499166573         46.021087225889694
  78 H     1.0000    0     1.008         28.185594234771653         14.025010175011140         44.817735140183920
  79 C     6.0000    0    12.011         33.280686941469298         -2.545970340244130         50.619863244544781
  80 H     1.0000    0     1.008         31.658583737472707         -3.638612762434878         51.328956021207567
  81 H     1.0000    0     1.008         34.979199761499402         -3.250479173815506         51.642675703444063
  82 C     6.0000    0    12.011         29.151312356363420          7.661709548377991         36.683817801725056
  83 H     1.0000    0     1.008         27.725836501333269          9.109655453190555         37.131088477948985
  84 H     1.0000    0     1.008         29.853717391706585          8.081083252157176         34.745293450077007
  85 C     6.0000    0    12.011         38.045149720634988          2.492169698019891         43.427889535829671
  86 C     6.0000    0    12.011         35.962606607322279          2.035176153184317         41.859556214465570
  87 H     1.0000    0     1.008         34.041823111143124          2.173894871736032         42.610973916085754
  88 C     6.0000    0    12.011         43.991407794454510         -1.306734685576423         37.748778649910136
  89 H     1.0000    0     1.008         42.586573219658050         -1.758878187074747         36.288150776409502
  90 H     1.0000    0     1.008         45.888226651684299         -1.503514738981947         36.907045010153261
  91 H     1.0000    0     1.008         43.801040842036599         -2.715534746617412         39.265718758469987
  92 C     6.0000    0    12.011         37.832235846535241          3.193769357726266         46.191692094070589
  93 C     6.0000    0    12.011         26.265486824411045         15.044045727842846         49.585231668511391
  94 C     6.0000    0    12.011         21.191936541685877         -8.140697805951669         43.184638476870390
  95 C     6.0000    0    12.011         31.363338611453038          8.002934748701648         38.548937761361245
  96 H     1.0000    0     1.008         32.734269345471354          6.462698192089369         38.294478715927262
  97 H     1.0000    0     1.008         32.299304067062515          9.816964717275068         38.147787817376255
  98 C     6.0000    0    12.011         43.918309844881307          3.315783904717576         36.616544555337320
  99 H     1.0000    0     1.008         42.504181704028689          3.004165721194478         35.128424202998815
 100 H     1.0000    0     1.008         43.683778641968580          5.260240841815238         37.313785806982381
 101 H     1.0000    0     1.008         45.811254574566924          3.152417117301365         35.758614044222639
 102 C     6.0000    0    12.011         45.686846394079510          1.908156168994646         40.765394191241754
 103 H     1.0000    0     1.008         45.545759736592792          3.828418513799963         41.547006418779411
 104 H     1.0000    0     1.008         45.588580230208862          0.568246139314481         42.350986992405659
 105 H     1.0000    0     1.008         47.559771246161958          1.714545614348296         39.876278456606556
 106 C     6.0000    0    12.011         25.334957204086219         14.825122323404456         52.331539623693516
 107 H     1.0000    0     1.008         24.750746874856169         16.699398890783350         53.025731781527334
 108 H     1.0000    0     1.008         23.703814095562887         13.547360658272797         52.491111424069807
 109 H     1.0000    0     1.008         26.825733464860260         14.111771900903785         53.591601556539992
 110 C     6.0000    0    12.011         18.687579078986460         -7.341671184746563         44.460722907954214
 111 H     1.0000    0     1.008         17.269827153077994         -8.862389718202625         44.308426133718079
 112 H     1.0000    0     1.008         18.990760493384101         -6.932192095874568         46.476348618732899
 113 H     1.0000    0     1.008         17.900126578443945         -5.633370358208811         43.581144129547120
 114 C     6.0000    0    12.011         28.498913616517164         16.926849946246861         49.524654379100909
 115 H     1.0000    0     1.008         29.216075426648015         17.191847248128145         47.594174170228236
 116 H     1.0000    0     1.008         27.907239227703940         18.786290849835186         50.257917280779054
 117 H     1.0000    0     1.008         30.073569023523248         16.235805201702956         50.693116601649841
 118 C     6.0000    0    12.011         20.681604523850726         -8.736117739987705         40.370520544577744
 119 H     1.0000    0     1.008         22.428794834680222         -9.338278217461731         39.418289743993512
 120 H     1.0000    0     1.008         19.277499479710340        -10.266475110742517         40.191594829615113
 121 H     1.0000    0     1.008         19.955512183246988         -7.071911491873127         39.363396580262290
 122 C     6.0000    0    12.011         24.080243780052687         16.101571149674815         47.959075895519739
 123 H     1.0000    0     1.008         24.658500722622406         16.343289064897107         45.979430031135998
 124 H     1.0000    0     1.008         22.452914342282941         14.808073125955488         47.987893871476395
 125 H     1.0000    0     1.008         23.456553596952123         17.954013270605419         48.683941500297905
 126 C     6.0000    0    12.011         22.134622954044897        -10.570623706138781         44.474130571536442
 127 H     1.0000    0     1.008         23.900294086268449        -11.258659187924778         43.620732803066851
 128 H     1.0000    0     1.008         22.481695427872452        -10.277396756206251         46.502058628856950
 129 H     1.0000    0     1.008         20.701774730218347        -12.069015440787171         44.279030317189189

--------------------------------
INTERNAL COORDINATES (ANGSTROEM)
--------------------------------
 O      0   0   0   0.000000     0.000     0.000
 O      1   0   0   4.916485     0.000     0.000
 O      2   1   0   4.919491   100.242     0.000
 O      2   1   3   4.914022    99.853   258.125
 O      2   1   3   1.505491   117.613   129.219
 O      5   2   1   4.917446   118.100   291.685
 N      1   2   3   2.290065    12.273   345.789
 H      7   1   2   1.071089   151.268   346.122
 O      5   2   1   4.923907   117.849   172.144
 N      3   2   1   2.289853    12.376   244.655
 H     10   3   2   1.069753   151.101   346.145
 N      6   5   2   2.289120    12.481   114.959
 H     12   6   5   1.069424   151.289   344.892
 O      5   2   1   4.923817   118.091    52.514
 N     14   5   2   2.289484    12.398   115.932
 H     15  14   5   1.068216   151.111   345.642
 N      9   5   2   2.289047    12.553   114.953
 H     17   9   5   1.068030   151.201   345.364
 N      7   1   8   3.078192   113.037   115.373
 N      4   2   1   2.289852    12.366   346.377
 H     20   4  19   1.070822   151.233   244.015
 N     12   6  13   3.076573   112.700   116.076
 C      7   1   8   1.453710    91.825   166.653
 H     23   7   1   1.099487   108.135   150.740
 H     23   7   1   1.100881   108.587    32.613
 C      6   5   2   2.395976    51.937   324.210
 C     26   6   5   1.404594    89.505   185.331
 H     27  26   6   1.089794   115.979   359.079
 C     27  26   6   1.398688   121.600   179.008
 C      1   2   3   1.251245    19.241   204.811
 C      3   2   1   1.251185    19.160   103.742
 C     30   1   2   3.797042    98.512   196.431
 C     32  30   1   1.402926    16.051   359.806
 H     33  32  30   1.091997   121.984   179.255
 C      9   5   2   2.766635    82.273   321.281
 H     35   9   5   1.089751    56.010   183.313
 C     35   9   5   2.426314    90.068     3.679
 H     37  35   9   1.093779   150.398     0.149
 C     31   3   2   1.513448   119.832   195.889
 C     19   7   1   1.457186   128.052   134.625
 H     40  19   7   1.100952   109.039   304.959
 H     40  19   7   1.113524   111.073   187.627
 C     39  31   3   1.399680   116.543     0.537
 H     43  39  31   1.091897   116.125   359.376
 C     35   9   5   1.398618   178.238   209.622
 C      6   5   2   1.251235    19.240   335.343
 C     22  12   6   1.457107   111.135   289.775
 H     47  22  12   1.100879   109.032   209.594
 H     47  22  12   1.113486   111.097    92.243
 C     19   7   1   1.457386    53.196    37.555
 H     50  19   7   1.100990   109.033   270.056
 H     50  19   7   1.113319   111.044   152.732
 C     33  32  30   1.399671   121.870   359.215
 C     15  14  16   1.453583    91.883   167.793
 H     54  15  14   1.099551   108.093   150.402
 H     54  15  14   1.100825   108.506    32.315
 C     37  35   9   1.400703    30.175     1.002
 C     17   9  36   1.453666    91.795   179.670
 H     58  17   9   1.099590   108.127   150.692
 H     58  17   9   1.100869   108.505    32.618
 C     32  30   1   1.540469   135.698     0.756
 C      9   5   2   1.251133    19.166   335.134
 C     26   6   5   1.400648   150.715     3.155
 H     63  26   6   1.093870   120.182     1.841
 C     12   6  46   1.453618    91.779   177.711
 H     65  12   6   1.099445   108.082   151.219
 H     65  12   6   1.100938   108.584    33.102
 C     32  30   1   1.398733   101.585   180.362
 H     68  32  30   1.089741   122.410   180.050
 C      4   2   1   1.251275    19.179   205.646
 C     37  35   9   1.403987    89.440   180.755
 C     22  12   6   1.457147   127.856   134.913
 H     72  22  12   1.100936   109.049   305.125
 H     72  22  12   1.113513   111.088   187.790
 C     10   3  31   1.453663    91.816   177.495
 H     75  10   3   1.099472   108.177   150.494
 H     75  10   3   1.100784   108.530    32.333
 C     71  37  35   1.399638   119.522   359.918
 H     78  71  37   1.091960   116.169   180.206
 C     22  12   6   1.457139    53.259    37.731
 H     80  22  12   1.100879   109.068   270.064
 H     80  22  12   1.113465   111.086   152.695
 C     19   7   1   1.457256   110.862   289.379
 H     83  19   7   1.100966   109.036   209.418
 H     83  19   7   1.113428   111.056    92.071
 C     68  32  30   1.404534   121.606     0.142
 C     86  68  32   1.400621   119.742     0.227
 H     87  86  68   1.093911   120.273   179.319
 C     61  32  30   1.546094   109.505   300.753
 H     89  61  32   1.098782   111.412    58.905
 H     89  61  32   1.103072   110.538   179.150
 H     89  61  32   1.100137   110.666   299.128
 C     14   5   2   1.251078    19.141   334.651
 C     45  35  36   1.540294   122.744   359.757
 C     29  27  26   1.540387   122.743   180.255
 C     20   4  70   1.453682    91.866   177.763
 H     96  20   4   1.099432   108.101   150.689
 H     96  20   4   1.100849   108.582    32.547
 C     61  32  30   1.546280   109.404    60.249
 H     99  61  32   1.098775   111.344   301.325
 H     99  61  32   1.100137   110.675    61.074
 H     99  61  32   1.103176   110.564   181.058
 C     61  32  30   1.538871   112.295   180.487
 H    103  61  32   1.099649   111.692   299.501
 H    103  61  32   1.099762   111.649    60.281
 H    103  61  32   1.101891   109.682   179.906
 C     94  45  35   1.538807   112.319     0.799
 H    107  94  45   1.101924   109.686   179.756
 H    107  94  45   1.099717   111.714   299.368
 H    107  94  45   1.099752   111.649    60.150
 C     95  29  27   1.546306   109.369   119.225
 H    111  95  29   1.103154   110.578   179.019
 H    111  95  29   1.100172   110.626   298.974
 H    111  95  29   1.098859   111.406    58.733
 C     94  45  35   1.546141   109.506   121.066
 H    115  94  45   1.098766   111.441    58.549
 H    115  94  45   1.103087   110.521   178.817
 H    115  94  45   1.100178   110.678   298.776
 C     95  29  27   1.545906   109.550   238.718
 H    119  95  29   1.100131   110.698    61.149
 H    119  95  29   1.103118   110.486   181.125
 H    119  95  29   1.098739   111.406   301.345
 C     94  45  35   1.546251   109.380   240.555
 H    123  94  45   1.098831   111.373   301.240
 H    123  94  45   1.100150   110.640    60.964
 H    123  94  45   1.103174   110.599   180.956
 C     95  29  27   1.538804   112.302   359.064
 H    127  95  29   1.099782   111.714   299.701
 H    127  95  29   1.099738   111.651    60.491
 H    127  95  29   1.101947   109.674   180.075

---------------------------
INTERNAL COORDINATES (A.U.)
---------------------------
 O      0   0   0   0.000000     0.000     0.000
 O      1   0   0   9.290811     0.000     0.000
 O      2   1   0   9.296490   100.242     0.000
 O      2   1   3   9.286155    99.853   258.125
 O      2   1   3   2.844965   117.613   129.219
 O      5   2   1   9.292626   118.100   291.685
 N      1   2   3   4.327595    12.273   345.789
 H      7   1   2   2.024065   151.268   346.122
 O      5   2   1   9.304837   117.849   172.144
 N      3   2   1   4.327195    12.376   244.655
 H     10   3   2   2.021539   151.101   346.145
 N      6   5   2   4.325810    12.481   114.959
 H     12   6   5   2.020918   151.289   344.892
 O      5   2   1   9.304666   118.091    52.514
 N     14   5   2   4.326498    12.398   115.932
 H     15  14   5   2.018636   151.111   345.642
 N      9   5   2   4.325673    12.553   114.953
 H     17   9   5   2.018284   151.201   345.364
 N      7   1   8   5.816939   113.037   115.373
 N      4   2   1   4.327194    12.366   346.377
 H     20   4  19   2.023560   151.233   244.015
 N     12   6  13   5.813881   112.700   116.076
 C      7   1   8   2.747114    91.825   166.653
 H     23   7   1   2.077730   108.135   150.740
 H     23   7   1   2.080364   108.587    32.613
 C      6   5   2   4.527739    51.937   324.210
 C     26   6   5   2.654298    89.505   185.331
 H     27  26   6   2.059412   115.979   359.079
 C     27  26   6   2.643137   121.600   179.008
 C      1   2   3   2.364510    19.241   204.811
 C      3   2   1   2.364397    19.160   103.742
 C     30   1   2   7.175370    98.512   196.431
 C     32  30   1   2.651146    16.051   359.806
 H     33  32  30   2.063574   121.984   179.255
 C      9   5   2   5.228182    82.273   321.281
 H     35   9   5   2.059332    56.010   183.313
 C     35   9   5   4.585070    90.068     3.679
 H     37  35   9   2.066942   150.398     0.149
 C     31   3   2   2.860002   119.832   195.889
 C     19   7   1   2.753682   128.052   134.625
 H     40  19   7   2.080498   109.039   304.959
 H     40  19   7   2.104255   111.073   187.627
 C     39  31   3   2.645012   116.543     0.537
 H     43  39  31   2.063387   116.125   359.376
 C     35   9   5   2.643005   178.238   209.622
 C      6   5   2   2.364492    19.240   335.343
 C     22  12   6   2.753534   111.135   289.775
 H     47  22  12   2.080359   109.032   209.594
 H     47  22  12   2.104183   111.097    92.243
 C     19   7   1   2.754060    53.196    37.555
 H     50  19   7   2.080569   109.033   270.056
 H     50  19   7   2.103867   111.044   152.732
 C     33  32  30   2.644994   121.870   359.215
 C     15  14  16   2.746874    91.883   167.793
 H     54  15  14   2.077850   108.093   150.402
 H     54  15  14   2.080258   108.506    32.315
 C     37  35   9   2.646945    30.175     1.002
 C     17   9  36   2.747030    91.795   179.670
 H     58  17   9   2.077925   108.127   150.692
 H     58  17   9   2.080341   108.505    32.618
 C     32  30   1   2.911064   135.698     0.756
 C      9   5   2   2.364298    19.166   335.134
 C     26   6   5   2.646842   150.715     3.155
 H     63  26   6   2.067114   120.182     1.841
 C     12   6  46   2.746940    91.779   177.711
 H     65  12   6   2.077649   108.082   151.219
 H     65  12   6   2.080472   108.584    33.102
 C     32  30   1   2.643223   101.585   180.362
 H     68  32  30   2.059311   122.410   180.050
 C      4   2   1   2.364567    19.179   205.646
 C     37  35   9   2.653151    89.440   180.755
 C     22  12   6   2.753609   127.856   134.913
 H     72  22  12   2.080468   109.049   305.125
 H     72  22  12   2.104234   111.088   187.790
 C     10   3  31   2.747024    91.816   177.495
 H     75  10   3   2.077701   108.177   150.494
 H     75  10   3   2.080180   108.530    32.333
 C     71  37  35   2.644933   119.522   359.918
 H     78  71  37   2.063506   116.169   180.206
 C     22  12   6   2.753593    53.259    37.731
 H     80  22  12   2.080360   109.068   270.064
 H     80  22  12   2.104144   111.086   152.695
 C     19   7   1   2.753815   110.862   289.379
 H     83  19   7   2.080524   109.036   209.418
 H     83  19   7   2.104073   111.056    92.071
 C     68  32  30   2.654185   121.606     0.142
 C     86  68  32   2.646790   119.742     0.227
 H     87  86  68   2.067191   120.273   179.319
 C     61  32  30   2.921694   109.505   300.753
 H     89  61  32   2.076398   111.412    58.905
 H     89  61  32   2.084505   110.538   179.150
 H     89  61  32   2.078958   110.666   299.128
 C     14   5   2   2.364194    19.141   334.651
 C     45  35  36   2.910734   122.744   359.757
 C     29  27  26   2.910910   122.743   180.255
 C     20   4  70   2.747061    91.866   177.763
 H     96  20   4   2.077626   108.101   150.689
 H     96  20   4   2.080302   108.582    32.547
 C     61  32  30   2.922045   109.404    60.249
 H     99  61  32   2.076383   111.344   301.325
 H     99  61  32   2.078957   110.675    61.074
 H     99  61  32   2.084700   110.564   181.058
 C     61  32  30   2.908044   112.295   180.487
 H    103  61  32   2.078035   111.692   299.501
 H    103  61  32   2.078249   111.649    60.281
 H    103  61  32   2.082273   109.682   179.906
 C     94  45  35   2.907924   112.319     0.799
 H    107  94  45   2.082335   109.686   179.756
 H    107  94  45   2.078164   111.714   299.368
 H    107  94  45   2.078230   111.649    60.150
 C     95  29  27   2.922095   109.369   119.225
 H    111  95  29   2.084658   110.578   179.019
 H    111  95  29   2.079024   110.626   298.974
 H    111  95  29   2.076543   111.406    58.733
 C     94  45  35   2.921783   109.506   121.066
 H    115  94  45   2.076367   111.441    58.549
 H    115  94  45   2.084532   110.521   178.817
 H    115  94  45   2.079035   110.678   298.776
 C     95  29  27   2.921339   109.550   238.718
 H    119  95  29   2.078946   110.698    61.149
 H    119  95  29   2.084591   110.486   181.125
 H    119  95  29   2.076317   111.406   301.345
 C     94  45  35   2.921991   109.380   240.555
 H    123  94  45   2.076489   111.373   301.240
 H    123  94  45   2.078983   110.640    60.964
 H    123  94  45   2.084697   110.599   180.956
 C     95  29  27   2.907918   112.302   359.064
 H    127  95  29   2.078287   111.714   299.701
 H    127  95  29   2.078204   111.651    60.491
 H    127  95  29   2.082377   109.674   180.075

---------------------
BASIS SET INFORMATION
---------------------
There are 4 groups of distinct atoms

 Group   1 Type O   : 11s6p2d contracted to 5s3p2d pattern {62111/411/11}
 Group   2 Type N   : 11s6p2d contracted to 5s3p2d pattern {62111/411/11}
 Group   3 Type H   : 5s1p contracted to 3s1p pattern {311/1}
 Group   4 Type C   : 11s6p2d contracted to 5s3p2d pattern {62111/411/11}

Atom   0O    basis set group =>   1
Atom   1O    basis set group =>   1
Atom   2O    basis set group =>   1
Atom   3O    basis set group =>   1
Atom   4O    basis set group =>   1
Atom   5O    basis set group =>   1
Atom   6N    basis set group =>   2
Atom   7H    basis set group =>   3
Atom   8O    basis set group =>   1
Atom   9N    basis set group =>   2
Atom  10H    basis set group =>   3
Atom  11N    basis set group =>   2
Atom  12H    basis set group =>   3
Atom  13O    basis set group =>   1
Atom  14N    basis set group =>   2
Atom  15H    basis set group =>   3
Atom  16N    basis set group =>   2
Atom  17H    basis set group =>   3
Atom  18N    basis set group =>   2
Atom  19N    basis set group =>   2
Atom  20H    basis set group =>   3
Atom  21N    basis set group =>   2
Atom  22C    basis set group =>   4
Atom  23H    basis set group =>   3
Atom  24H    basis set group =>   3
Atom  25C    basis set group =>   4
Atom  26C    basis set group =>   4
Atom  27H    basis set group =>   3
Atom  28C    basis set group =>   4
Atom  29C    basis set group =>   4
Atom  30C    basis set group =>   4
Atom  31C    basis set group =>   4
Atom  32C    basis set group =>   4
Atom  33H    basis set group =>   3
Atom  34C    basis set group =>   4
Atom  35H    basis set group =>   3
Atom  36C    basis set group =>   4
Atom  37H    basis set group =>   3
Atom  38C    basis set group =>   4
Atom  39C    basis set group =>   4
Atom  40H    basis set group =>   3
Atom  41H    basis set group =>   3
Atom  42C    basis set group =>   4
Atom  43H    basis set group =>   3
Atom  44C    basis set group =>   4
Atom  45C    basis set group =>   4
Atom  46C    basis set group =>   4
Atom  47H    basis set group =>   3
Atom  48H    basis set group =>   3
Atom  49C    basis set group =>   4
Atom  50H    basis set group =>   3
Atom  51H    basis set group =>   3
Atom  52C    basis set group =>   4
Atom  53C    basis set group =>   4
Atom  54H    basis set group =>   3
Atom  55H    basis set group =>   3
Atom  56C    basis set group =>   4
Atom  57C    basis set group =>   4
Atom  58H    basis set group =>   3
Atom  59H    basis set group =>   3
Atom  60C    basis set group =>   4
Atom  61C    basis set group =>   4
Atom  62C    basis set group =>   4
Atom  63H    basis set group =>   3
Atom  64C    basis set group =>   4
Atom  65H    basis set group =>   3
Atom  66H    basis set group =>   3
Atom  67C    basis set group =>   4
Atom  68H    basis set group =>   3
Atom  69C    basis set group =>   4
Atom  70C    basis set group =>   4
Atom  71C    basis set group =>   4
Atom  72H    basis set group =>   3
Atom  73H    basis set group =>   3
Atom  74C    basis set group =>   4
Atom  75H    basis set group =>   3
Atom  76H    basis set group =>   3
Atom  77C    basis set group =>   4
Atom  78H    basis set group =>   3
Atom  79C    basis set group =>   4
Atom  80H    basis set group =>   3
Atom  81H    basis set group =>   3
Atom  82C    basis set group =>   4
Atom  83H    basis set group =>   3
Atom  84H    basis set group =>   3
Atom  85C    basis set group =>   4
Atom  86C    basis set group =>   4
Atom  87H    basis set group =>   3
Atom  88C    basis set group =>   4
Atom  89H    basis set group =>   3
Atom  90H    basis set group =>   3
Atom  91H    basis set group =>   3
Atom  92C    basis set group =>   4
Atom  93C    basis set group =>   4
Atom  94C    basis set group =>   4
Atom  95C    basis set group =>   4
Atom  96H    basis set group =>   3
Atom  97H    basis set group =>   3
Atom  98C    basis set group =>   4
Atom  99H    basis set group =>   3
Atom 100H    basis set group =>   3
Atom 101H    basis set group =>   3
Atom 102C    basis set group =>   4
Atom 103H    basis set group =>   3
Atom 104H    basis set group =>   3
Atom 105H    basis set group =>   3
Atom 106C    basis set group =>   4
Atom 107H    basis set group =>   3
Atom 108H    basis set group =>   3
Atom 109H    basis set group =>   3
Atom 110C    basis set group =>   4
Atom 111H    basis set group =>   3
Atom 112H    basis set group =>   3
Atom 113H    basis set group =>   3
Atom 114C    basis set group =>   4
Atom 115H    basis set group =>   3
Atom 116H    basis set group =>   3
Atom 117H    basis set group =>   3
Atom 118C    basis set group =>   4
Atom 119H    basis set group =>   3
Atom 120H    basis set group =>   3
Atom 121H    basis set group =>   3
Atom 122C    basis set group =>   4
Atom 123H    basis set group =>   3
Atom 124H    basis set group =>   3
Atom 125H    basis set group =>   3
Atom 126C    basis set group =>   4
Atom 127H    basis set group =>   3
Atom 128H    basis set group =>   3
Atom 129H    basis set group =>   3

INFORMATION: There is an auxiliary basis set but the global RI flag is NOT set

-------------------------------
AUXILIARY BASIS SET INFORMATION
-------------------------------
There are 4 groups of distinct atoms

 Group   1 Type O   : 12s5p4d2f1g contracted to 6s4p3d1f1g pattern {711111/2111/211/2/1}
 Group   2 Type N   : 12s5p4d2f1g contracted to 6s4p3d1f1g pattern {711111/2111/211/2/1}
 Group   3 Type H   : 5s2p1d contracted to 3s1p1d pattern {311/2/1}
 Group   4 Type C   : 12s5p4d2f1g contracted to 6s4p3d1f1g pattern {711111/2111/211/2/1}

Atom   0O    basis set group =>   1
Atom   1O    basis set group =>   1
Atom   2O    basis set group =>   1
Atom   3O    basis set group =>   1
Atom   4O    basis set group =>   1
Atom   5O    basis set group =>   1
Atom   6N    basis set group =>   2
Atom   7H    basis set group =>   3
Atom   8O    basis set group =>   1
Atom   9N    basis set group =>   2
Atom  10H    basis set group =>   3
Atom  11N    basis set group =>   2
Atom  12H    basis set group =>   3
Atom  13O    basis set group =>   1
Atom  14N    basis set group =>   2
Atom  15H    basis set group =>   3
Atom  16N    basis set group =>   2
Atom  17H    basis set group =>   3
Atom  18N    basis set group =>   2
Atom  19N    basis set group =>   2
Atom  20H    basis set group =>   3
Atom  21N    basis set group =>   2
Atom  22C    basis set group =>   4
Atom  23H    basis set group =>   3
Atom  24H    basis set group =>   3
Atom  25C    basis set group =>   4
Atom  26C    basis set group =>   4
Atom  27H    basis set group =>   3
Atom  28C    basis set group =>   4
Atom  29C    basis set group =>   4
Atom  30C    basis set group =>   4
Atom  31C    basis set group =>   4
Atom  32C    basis set group =>   4
Atom  33H    basis set group =>   3
Atom  34C    basis set group =>   4
Atom  35H    basis set group =>   3
Atom  36C    basis set group =>   4
Atom  37H    basis set group =>   3
Atom  38C    basis set group =>   4
Atom  39C    basis set group =>   4
Atom  40H    basis set group =>   3
Atom  41H    basis set group =>   3
Atom  42C    basis set group =>   4
Atom  43H    basis set group =>   3
Atom  44C    basis set group =>   4
Atom  45C    basis set group =>   4
Atom  46C    basis set group =>   4
Atom  47H    basis set group =>   3
Atom  48H    basis set group =>   3
Atom  49C    basis set group =>   4
Atom  50H    basis set group =>   3
Atom  51H    basis set group =>   3
Atom  52C    basis set group =>   4
Atom  53C    basis set group =>   4
Atom  54H    basis set group =>   3
Atom  55H    basis set group =>   3
Atom  56C    basis set group =>   4
Atom  57C    basis set group =>   4
Atom  58H    basis set group =>   3
Atom  59H    basis set group =>   3
Atom  60C    basis set group =>   4
Atom  61C    basis set group =>   4
Atom  62C    basis set group =>   4
Atom  63H    basis set group =>   3
Atom  64C    basis set group =>   4
Atom  65H    basis set group =>   3
Atom  66H    basis set group =>   3
Atom  67C    basis set group =>   4
Atom  68H    basis set group =>   3
Atom  69C    basis set group =>   4
Atom  70C    basis set group =>   4
Atom  71C    basis set group =>   4
Atom  72H    basis set group =>   3
Atom  73H    basis set group =>   3
Atom  74C    basis set group =>   4
Atom  75H    basis set group =>   3
Atom  76H    basis set group =>   3
Atom  77C    basis set group =>   4
Atom  78H    basis set group =>   3
Atom  79C    basis set group =>   4
Atom  80H    basis set group =>   3
Atom  81H    basis set group =>   3
Atom  82C    basis set group =>   4
Atom  83H    basis set group =>   3
Atom  84H    basis set group =>   3
Atom  85C    basis set group =>   4
Atom  86C    basis set group =>   4
Atom  87H    basis set group =>   3
Atom  88C    basis set group =>   4
Atom  89H    basis set group =>   3
Atom  90H    basis set group =>   3
Atom  91H    basis set group =>   3
Atom  92C    basis set group =>   4
Atom  93C    basis set group =>   4
Atom  94C    basis set group =>   4
Atom  95C    basis set group =>   4
Atom  96H    basis set group =>   3
Atom  97H    basis set group =>   3
Atom  98C    basis set group =>   4
Atom  99H    basis set group =>   3
Atom 100H    basis set group =>   3
Atom 101H    basis set group =>   3
Atom 102C    basis set group =>   4
Atom 103H    basis set group =>   3
Atom 104H    basis set group =>   3
Atom 105H    basis set group =>   3
Atom 106C    basis set group =>   4
Atom 107H    basis set group =>   3
Atom 108H    basis set group =>   3
Atom 109H    basis set group =>   3
Atom 110C    basis set group =>   4
Atom 111H    basis set group =>   3
Atom 112H    basis set group =>   3
Atom 113H    basis set group =>   3
Atom 114C    basis set group =>   4
Atom 115H    basis set group =>   3
Atom 116H    basis set group =>   3
Atom 117H    basis set group =>   3
Atom 118C    basis set group =>   4
Atom 119H    basis set group =>   3
Atom 120H    basis set group =>   3
Atom 121H    basis set group =>   3
Atom 122C    basis set group =>   4
Atom 123H    basis set group =>   3
Atom 124H    basis set group =>   3
Atom 125H    basis set group =>   3
Atom 126C    basis set group =>   4
Atom 127H    basis set group =>   3
Atom 128H    basis set group =>   3
Atom 129H    basis set group =>   3


           ************************************************************
           *        Program running with 8 parallel MPI-processes     *
           *              working on a common directory               *
           ************************************************************
------------------------------------------------------------------------------
                           ORCA GTO INTEGRAL CALCULATION
------------------------------------------------------------------------------

                         BASIS SET STATISTICS AND STARTUP INFO

 # of primitive gaussian shells          ... 1612
 # of primitive gaussian functions       ... 3024
 # of contracted shell                   ...  904
 # of contracted basis functions         ... 1932
 Highest angular momentum                ...    2
 Maximum contraction depth               ...    6
 Integral package used                   ... LIBINT
 Integral threshhold            Thresh   ...  1.000e-10
 Primitive cut-off              TCut     ...  1.000e-11


                              INTEGRAL EVALUATION

 One electron integrals                  ... done
 Pre-screening matrix                    ... done
 Shell pair data                         ... done (   0.162 sec)

           ************************************************************
           *              Shut down parallel processing               *
           ************************************************************


           ************************************************************
           *        Program running with 8 parallel MPI-processes     *
           *              working on a common directory               *
           ************************************************************
-------------------------------------------------------------------------------
                                 ORCA SCF
-------------------------------------------------------------------------------

------------
SCF SETTINGS
------------
Hamiltonian:
 Density Functional     Method          .... DFT(GTOs)
 Exchange Functional    Exchange        .... B88
   X-Alpha parameter    XAlpha          ....  0.666667
   Becke's b parameter  XBeta           ....  0.004200
 Correlation Functional Correlation     .... LYP
 LDA part of GGA corr.  LDAOpt          .... VWN-5
 Gradients option       PostSCFGGA      .... off
 Hybrid DFT is turned on
   Fraction HF Exchange ScalHFX         ....  0.200000
   Scaling of DF-GGA-X  ScalDFX         ....  0.720000
   Scaling of DF-GGA-C  ScalDFC         ....  0.810000
   Scaling of DF-LDA-C  ScalLDAC        ....  1.000000
   Perturbative correction              ....  0.000000
   NL short-range parameter             ....  4.800000


General Settings:
 Integral files         IntName         .... peroxide_peroxide
 Hartree-Fock type      HFTyp           .... RHF
 Total Charge           Charge          ....   -2
 Multiplicity           Mult            ....    1
 Number of Electrons    NEL             ....  476
 Basis Dimension        Dim             .... 1932
 Nuclear Repulsion      ENuc            ....  10646.2856717747 Eh

Convergence Acceleration:
 DIIS                   CNVDIIS         .... on
   Start iteration      DIISMaxIt       ....    12
   Startup error        DIISStart       ....  0.200000
   # of expansion vecs  DIISMaxEq       ....     5
   Bias factor          DIISBfac        ....   1.050
   Max. coefficient     DIISMaxC        ....  10.000
 Newton-Raphson         CNVNR           .... off
 SOSCF                  CNVSOSCF        .... on
   Start iteration      SOSCFMaxIt      ....   150
   Startup grad/error   SOSCFStart      ....  0.003300
 Level Shifting         CNVShift        .... on
   Level shift para.    LevelShift      ....    0.2500
   Turn off err/grad.   ShiftErr        ....    0.0010
 Zerner damping         CNVZerner       .... off
 Static damping         CNVDamp         .... on
   Fraction old density DampFac         ....    0.7000
   Max. Damping (<1)    DampMax         ....    0.9800
   Min. Damping (>=0)   DampMin         ....    0.0000
   Turn off err/grad.   DampErr         ....    0.1000
 Fernandez-Rico         CNVRico         .... off

SCF Procedure:
 Maximum # iterations   MaxIter         ....   125
 SCF integral mode      SCFMode         .... Direct
   Integral package                     .... LIBINT
 Reset frequeny         DirectResetFreq ....    20
 Integral Threshold     Thresh          ....  1.000e-10 Eh
 Primitive CutOff       TCut            ....  1.000e-11 Eh

Convergence Tolerance:
 Convergence Check Mode ConvCheckMode   .... Total+1el-Energy
 Energy Change          TolE            ....  1.000e-06 Eh
 1-El. energy change                    ....  1.000e-03 Eh
 Orbital Gradient       TolG            ....  5.000e-05
 Orbital Rotation angle TolX            ....  5.000e-05
 DIIS Error             TolErr          ....  1.000e-06


Diagonalization of the overlap matrix:
Smallest eigenvalue                        ... 3.797e-06
Time for diagonalization                   ...    2.450 sec
Threshold for overlap eigenvalues          ... 1.000e-08
Number of eigenvalues below threshold      ... 0
Time for construction of square roots      ...    1.539 sec
Total time needed                          ...    4.012 sec

-------------------
DFT GRID GENERATION
-------------------

General Integration Accuracy     IntAcc      ...  4.670
Radial Grid Type                 RadialGrid  ... Gauss-Chebyshev
Angular Grid (max. acc.)         AngularGrid ... Lebedev-302
Angular grid pruning method      GridPruning ... 3 (G Style)
Weight generation scheme         WeightScheme... Becke
Basis function cutoff            BFCut       ...    1.0000e-10
Integration weight cutoff        WCut        ...    1.0000e-14
Grids for H and He will be reduced by one unit

# of grid points (after initial pruning)     ... 621572 (   0.1 sec)
# of grid points (after weights+screening)   ... 512478 (  10.6 sec)
nearest neighbour list constructed           ...    0.0 sec
Grid point re-assignment to atoms done       ...    0.3 sec
Grid point division into batches done        ...    3.1 sec
Reduced shell lists constructed in   12.7 sec

Total number of grid points                  ...   512478
Total number of batches                      ...     8077
Average number of points per batch           ...       63
Average number of grid points per atom       ...     3942
Average number of shells per batch           ...   235.43 (26.04%)
Average number of basis functions per batch  ...   487.99 (25.26%)
Average number of large shells per batch     ...   118.57 (50.36%)
Average number of large basis fcns per batch ...   250.11 (51.25%)
Maximum spatial batch extension              ...  14.46, 17.26, 14.32 au
Average spatial batch extension              ...   0.21,  0.21,  0.21 au

Time for grid setup =   23.706 sec

------------------------------
INITIAL GUESS: MODEL POTENTIAL
------------------------------
Loading Hartree-Fock densities                     ... done
Calculating cut-offs                               ... done
Setting up the integral package                    ... done
Initializing the effective Hamiltonian             ... done
Starting the Coulomb interaction                   ... done (  12.5 sec)
Reading the grid                                   ... done
Mapping shells                                     ... done
Starting the XC term evaluation                    ... done (  13.4 sec)
  promolecular density results
     # of electrons  =    473.968619865
     EX              =   -384.521541528
     EC              =    -16.130041240
     EX+EC           =   -400.651582768
Transforming the Hamiltonian                       ... done (   1.3 sec)
Diagonalizing the Hamiltonian                      ... done (   2.3 sec)
Back transforming the eigenvectors                 ... done (   0.7 sec)
Now organizing SCF variables                       ... done
                      ------------------
                      INITIAL GUESS DONE (  54.6 sec)
                      ------------------
--------------
SCF ITERATIONS
--------------
ITER       Energy         Delta-E        Max-DP      RMS-DP      [F,P]     Damp
               ***  Starting incremental Fock matrix formation  ***
  0  -2906.0029682903   0.000000000000 0.26262197  0.00127411  0.3176606 0.7000
  1  -2906.9853643539  -0.982396063580 0.25662187  0.00119711  0.1255386 0.7000
                               ***Turning on DIIS***
  2  -2907.3588353671  -0.373471013227 0.23451081  0.00160330  0.0390447 0.0000
  3  -2907.9498901588  -0.591054791736 0.28355590  0.00114991  0.0627409 0.0000
  4  -2908.0828103647  -0.132920205824 0.07593511  0.00036593  0.0161398 0.0000
  5  -2908.0911133936  -0.008303028941 0.04217245  0.00018554  0.0089965 0.0000
                      *** Initiating the SOSCF procedure ***
                           *** Shutting down DIIS ***
                      *** Re-Reading the Fockian *** 
                      *** Removing any level shift *** 
ITER      Energy       Delta-E        Grad      Rot      Max-DP    RMS-DP
  6  -2908.09191904  -0.0008056478  0.000536  0.000536  0.012576  0.000060
               *** Restarting incremental Fock matrix formation ***
  7  -2908.09201651  -0.0000974696  0.000175  0.000543  0.007936  0.000039
  8  -2908.09200447   0.0000120391  0.000479  0.001006  0.001848  0.000012
  9  -2908.09203039  -0.0000259186  0.000118  0.000351  0.001831  0.000008
 10  -2908.09202709   0.0000033030  0.000186  0.000242  0.001203  0.000004
 11  -2908.09203152  -0.0000044367  0.000016  0.000053  0.001187  0.000005
 12  -2908.09203149   0.0000000327  0.000021  0.000036  0.001556  0.000005
                  ***Gradient check signals convergence***
              ***Rediagonalizing the Fockian in SOSCF/NRSCF***

               *****************************************************
               *                     SUCCESS                       *
               *           SCF CONVERGED AFTER  13 CYCLES          *
               *****************************************************

Setting up the final grid:

General Integration Accuracy     IntAcc      ...  5.010
Radial Grid Type                 RadialGrid  ... Gauss-Chebyshev
Angular Grid (max. acc.)         AngularGrid ... Lebedev-434
Angular grid pruning method      GridPruning ... 3 (G Style)
Weight generation scheme         WeightScheme... Becke
Basis function cutoff            BFCut       ...    1.0000e-10
Integration weight cutoff        WCut        ...    1.0000e-14
Grids for H and He will be reduced by one unit

# of grid points (after initial pruning)     ... 1126632 (   0.1 sec)
# of grid points (after weights+screening)   ... 925957 (  19.6 sec)
nearest neighbour list constructed           ...    0.0 sec
Grid point re-assignment to atoms done       ...    0.5 sec
Grid point division into batches done        ...   10.7 sec
Reduced shell lists constructed in   22.1 sec

Total number of grid points                  ...   925957
Total number of batches                      ...    14536
Average number of points per batch           ...       63
Average number of grid points per atom       ...     7123
Average number of shells per batch           ...   229.86 (25.43%)
Average number of basis functions per batch  ...   474.87 (24.58%)
Average number of large shells per batch     ...   115.35 (50.18%)
Average number of large basis fcns per batch ...   242.76 (51.12%)
Maximum spatial batch extension              ...  16.28, 15.25, 14.56 au
Average spatial batch extension              ...   0.17,  0.17,  0.17 au

Final grid set up in   42.5 sec
Final integration                            ... done (  28.7 sec)
Change in XC energy                          ...     0.000102600
Integrated number of electrons               ...   475.999581081
Previous integrated no of electrons          ...   476.000619332

----------------
TOTAL SCF ENERGY
----------------

Total Energy       :        -2908.09192938 Eh          -79133.20445 eV

Components:
Nuclear Repulsion  :        10646.28567177 Eh          289700.16120 eV
Electronic Energy  :       -13554.37760116 Eh         -368833.36565 eV

One Electron Energy:       -25260.71156304 Eh         -687378.90730 eV
Two Electron Energy:        11706.33396189 Eh          318545.54165 eV

Virial components:
Potential Energy   :        -5801.95069743 Eh         -157879.10490 eV
Kinetic Energy     :         2893.85876805 Eh           78745.90044 eV
Virial Ratio       :            2.00491840


DFT components:
N(Alpha)           :      237.999790540577 electrons
N(Beta)            :      237.999790540577 electrons
N(Total)           :      475.999581081154 electrons
E(X)               :     -311.129534190581 Eh       
E(C)               :      -19.030661402002 Eh       
E(XC)              :     -330.160195592584 Eh       

---------------
SCF CONVERGENCE
---------------

  Last Energy change         ...   -4.8955e-07  Tolerance :   1.0000e-06
  Last MAX-Density change    ...    1.7091e-03  Tolerance :   1.0000e-05
  Last RMS-Density change    ...    6.9594e-06  Tolerance :   1.0000e-06
  Last Orbital Gradient      ...    4.9730e-06  Tolerance :   5.0000e-05
  Last Orbital Rotation      ...    1.9639e-05  Tolerance :   5.0000e-05

             **** THE GBW FILE WAS UPDATED (peroxide_peroxide.gbw) ****
             **** DENSITY FILE WAS UPDATED (peroxide_peroxide.scfp.tmp) ****
             **** ENERGY FILE WAS UPDATED (peroxide_peroxide.en.tmp) ****
----------------
ORBITAL ENERGIES
----------------

  NO   OCC          E(Eh)            E(eV) 
   0   2.0000     -18.907623      -514.5026 
   1   2.0000     -18.907499      -514.4992 
   2   2.0000     -18.907494      -514.4991 
   3   2.0000     -18.907472      -514.4985 
   4   2.0000     -18.907402      -514.4966 
   5   2.0000     -18.907336      -514.4948 
   6   2.0000     -18.888909      -513.9933 
   7   2.0000     -18.888859      -513.9920 
   8   2.0000     -14.143244      -384.8572 
   9   2.0000     -14.143239      -384.8571 
  10   2.0000     -14.143165      -384.8551 
  11   2.0000     -14.142902      -384.8479 
  12   2.0000     -14.142886      -384.8475 
  13   2.0000     -14.142858      -384.8467 
  14   2.0000     -14.138770      -384.7355 
  15   2.0000     -14.138676      -384.7329 
  16   2.0000     -10.091171      -274.5947 
  17   2.0000     -10.091039      -274.5911 
  18   2.0000     -10.091027      -274.5908 
  19   2.0000     -10.090970      -274.5893 
  20   2.0000     -10.090959      -274.5890 
  21   2.0000     -10.090824      -274.5853 
  22   2.0000     -10.055778      -273.6316 
  23   2.0000     -10.055734      -273.6304 
  24   2.0000     -10.055668      -273.6286 
  25   2.0000     -10.032023      -272.9852 
  26   2.0000     -10.031957      -272.9834 
  27   2.0000     -10.031900      -272.9819 
  28   2.0000     -10.031891      -272.9816 
  29   2.0000     -10.031803      -272.9792 
  30   2.0000     -10.031725      -272.9771 
  31   2.0000     -10.030835      -272.9529 
  32   2.0000     -10.030820      -272.9525 
  33   2.0000     -10.030806      -272.9521 
  34   2.0000     -10.030779      -272.9514 
  35   2.0000     -10.030724      -272.9499 
  36   2.0000     -10.030694      -272.9491 
  37   2.0000     -10.030499      -272.9438 
  38   2.0000     -10.030497      -272.9437 
  39   2.0000     -10.030435      -272.9420 
  40   2.0000     -10.026026      -272.8220 
  41   2.0000     -10.025969      -272.8205 
  42   2.0000     -10.025855      -272.8174 
  43   2.0000     -10.024655      -272.7847 
  44   2.0000     -10.024627      -272.7840 
  45   2.0000     -10.024618      -272.7837 
  46   2.0000     -10.024597      -272.7831 
  47   2.0000     -10.024546      -272.7818 
  48   2.0000     -10.024451      -272.7792 
  49   2.0000     -10.017809      -272.5984 
  50   2.0000     -10.017800      -272.5982 
  51   2.0000     -10.017708      -272.5957 
  52   2.0000     -10.017288      -272.5843 
  53   2.0000     -10.017211      -272.5822 
  54   2.0000     -10.017202      -272.5819 
  55   2.0000     -10.012921      -272.4654 
  56   2.0000     -10.012827      -272.4629 
  57   2.0000     -10.012758      -272.4610 
  58   2.0000     -10.012332      -272.4494 
  59   2.0000     -10.012293      -272.4483 
  60   2.0000     -10.012227      -272.4466 
  61   2.0000     -10.007299      -272.3125 
  62   2.0000     -10.007245      -272.3110 
  63   2.0000     -10.007162      -272.3087 
  64   2.0000      -0.845606       -23.0101 
  65   2.0000      -0.845308       -23.0020 
  66   2.0000      -0.845226       -22.9998 
  67   2.0000      -0.845089       -22.9960 
  68   2.0000      -0.844877       -22.9903 
  69   2.0000      -0.844854       -22.9896 
  70   2.0000      -0.776175       -21.1208 
  71   2.0000      -0.761937       -20.7334 
  72   2.0000      -0.760379       -20.6910 
  73   2.0000      -0.729269       -19.8444 
  74   2.0000      -0.729180       -19.8420 
  75   2.0000      -0.728427       -19.8215 
  76   2.0000      -0.728338       -19.8191 
  77   2.0000      -0.721091       -19.6219 
  78   2.0000      -0.719070       -19.5669 
  79   2.0000      -0.708430       -19.2774 
  80   2.0000      -0.708379       -19.2760 
  81   2.0000      -0.707918       -19.2634 
  82   2.0000      -0.671793       -18.2804 
  83   2.0000      -0.671725       -18.2786 
  84   2.0000      -0.671257       -18.2658 
  85   2.0000      -0.604072       -16.4376 
  86   2.0000      -0.604019       -16.4362 
  87   2.0000      -0.598600       -16.2887 
  88   2.0000      -0.594535       -16.1781 
  89   2.0000      -0.594476       -16.1765 
  90   2.0000      -0.584841       -15.9143 
  91   2.0000      -0.577897       -15.7254 
  92   2.0000      -0.577855       -15.7242 
  93   2.0000      -0.571474       -15.5506 
  94   2.0000      -0.571422       -15.5492 
  95   2.0000      -0.562890       -15.3170 
  96   2.0000      -0.555343       -15.1117 
  97   2.0000      -0.553593       -15.0640 
  98   2.0000      -0.553531       -15.0623 
  99   2.0000      -0.553477       -15.0609 
 100   2.0000      -0.553423       -15.0594 
 101   2.0000      -0.553368       -15.0579 
 102   2.0000      -0.531434       -14.4610 
 103   2.0000      -0.529646       -14.4124 
 104   2.0000      -0.486755       -13.2453 
 105   2.0000      -0.486733       -13.2447 
 106   2.0000      -0.477914       -13.0047 
 107   2.0000      -0.477887       -13.0040 
 108   2.0000      -0.465650       -12.6710 
 109   2.0000      -0.465071       -12.6552 
 110   2.0000      -0.465001       -12.6533 
 111   2.0000      -0.456652       -12.4261 
 112   2.0000      -0.438197       -11.9239 
 113   2.0000      -0.435416       -11.8483 
 114   2.0000      -0.435403       -11.8479 
 115   2.0000      -0.419081       -11.4038 
 116   2.0000      -0.419044       -11.4028 
 117   2.0000      -0.410251       -11.1635 
 118   2.0000      -0.407831       -11.0976 
 119   2.0000      -0.388349       -10.5675 
 120   2.0000      -0.388199       -10.5634 
 121   2.0000      -0.384527       -10.4635 
 122   2.0000      -0.384341       -10.4585 
 123   2.0000      -0.374618       -10.1939 
 124   2.0000      -0.367076        -9.9886 
 125   2.0000      -0.367006        -9.9867 
 126   2.0000      -0.364682        -9.9235 
 127   2.0000      -0.360042        -9.7972 
 128   2.0000      -0.331294        -9.0150 
 129   2.0000      -0.331243        -9.0136 
 130   2.0000      -0.329467        -8.9653 
 131   2.0000      -0.329453        -8.9649 
 132   2.0000      -0.326019        -8.8714 
 133   2.0000      -0.320301        -8.7158 
 134   2.0000      -0.316566        -8.6142 
 135   2.0000      -0.316524        -8.6131 
 136   2.0000      -0.313729        -8.5370 
 137   2.0000      -0.313360        -8.5269 
 138   2.0000      -0.313317        -8.5258 
 139   2.0000      -0.309761        -8.4290 
 140   2.0000      -0.307620        -8.3708 
 141   2.0000      -0.307610        -8.3705 
 142   2.0000      -0.307541        -8.3686 
 143   2.0000      -0.306060        -8.3283 
 144   2.0000      -0.305979        -8.3261 
 145   2.0000      -0.301796        -8.2123 
 146   2.0000      -0.301760        -8.2113 
 147   2.0000      -0.296349        -8.0641 
 148   2.0000      -0.295773        -8.0484 
 149   2.0000      -0.289524        -7.8784 
 150   2.0000      -0.287524        -7.8239 
 151   2.0000      -0.287441        -7.8217 
 152   2.0000      -0.277521        -7.5517 
 153   2.0000      -0.277455        -7.5499 
 154   2.0000      -0.272382        -7.4119 
 155   2.0000      -0.272319        -7.4102 
 156   2.0000      -0.269908        -7.3446 
 157   2.0000      -0.264610        -7.2004 
 158   2.0000      -0.264537        -7.1984 
 159   2.0000      -0.264456        -7.1962 
 160   2.0000      -0.261694        -7.1211 
 161   2.0000      -0.254111        -6.9147 
 162   2.0000      -0.254087        -6.9141 
 163   2.0000      -0.251475        -6.8430 
 164   2.0000      -0.251395        -6.8408 
 165   2.0000      -0.250466        -6.8155 
 166   2.0000      -0.248600        -6.7648 
 167   2.0000      -0.248574        -6.7640 
 168   2.0000      -0.242471        -6.5980 
 169   2.0000      -0.242429        -6.5968 
 170   2.0000      -0.241509        -6.5718 
 171   2.0000      -0.238641        -6.4938 
 172   2.0000      -0.238579        -6.4921 
 173   2.0000      -0.238494        -6.4898 
 174   2.0000      -0.235881        -6.4187 
 175   2.0000      -0.234993        -6.3945 
 176   2.0000      -0.234906        -6.3921 
 177   2.0000      -0.233994        -6.3673 
 178   2.0000      -0.226799        -6.1715 
 179   2.0000      -0.226785        -6.1711 
 180   2.0000      -0.224774        -6.1164 
 181   2.0000      -0.219282        -5.9670 
 182   2.0000      -0.219229        -5.9655 
 183   2.0000      -0.218324        -5.9409 
 184   2.0000      -0.216974        -5.9042 
 185   2.0000      -0.216949        -5.9035 
 186   2.0000      -0.210556        -5.7295 
 187   2.0000      -0.209902        -5.7117 
 188   2.0000      -0.205427        -5.5900 
 189   2.0000      -0.205379        -5.5886 
 190   2.0000      -0.205050        -5.5797 
 191   2.0000      -0.205009        -5.5786 
 192   2.0000      -0.204928        -5.5764 
 193   2.0000      -0.200618        -5.4591 
 194   2.0000      -0.200572        -5.4578 
 195   2.0000      -0.199821        -5.4374 
 196   2.0000      -0.197593        -5.3768 
 197   2.0000      -0.197521        -5.3748 
 198   2.0000      -0.187351        -5.0981 
 199   2.0000      -0.187311        -5.0970 
 200   2.0000      -0.185891        -5.0584 
 201   2.0000      -0.185455        -5.0465 
 202   2.0000      -0.181786        -4.9467 
 203   2.0000      -0.181744        -4.9455 
 204   2.0000      -0.177107        -4.8193 
 205   2.0000      -0.177043        -4.8176 
 206   2.0000      -0.176453        -4.8015 
 207   2.0000      -0.175689        -4.7807 
 208   2.0000      -0.173057        -4.7091 
 209   2.0000      -0.171976        -4.6797 
 210   2.0000      -0.171957        -4.6792 
 211   2.0000      -0.168551        -4.5865 
 212   2.0000      -0.168496        -4.5850 
 213   2.0000      -0.152688        -4.1549 
 214   2.0000      -0.114624        -3.1191 
 215   2.0000      -0.114558        -3.1173 
 216   2.0000      -0.092789        -2.5249 
 217   2.0000      -0.092067        -2.5053 
 218   2.0000      -0.091995        -2.5033 
 219   2.0000      -0.088059        -2.3962 
 220   2.0000      -0.088005        -2.3947 
 221   2.0000      -0.087792        -2.3889 
 222   2.0000      -0.086662        -2.3582 
 223   2.0000      -0.086568        -2.3556 
 224   2.0000      -0.086199        -2.3456 
 225   2.0000      -0.081629        -2.2212 
 226   2.0000      -0.080612        -2.1936 
 227   2.0000      -0.078358        -2.1322 
 228   2.0000      -0.078322        -2.1313 
 229   2.0000      -0.075594        -2.0570 
 230   2.0000      -0.070150        -1.9089 
 231   2.0000      -0.070098        -1.9075 
 232   2.0000      -0.065800        -1.7905 
 233   2.0000      -0.065719        -1.7883 
 234   2.0000      -0.038524        -1.0483 
 235   2.0000      -0.038402        -1.0450 
 236   2.0000      -0.001704        -0.0464 
 237   2.0000      -0.001629        -0.0443 
 238   0.0000       0.119722         3.2578 
 239   0.0000       0.119859         3.2615 
 240   0.0000       0.119896         3.2625 
 241   0.0000       0.135213         3.6793 
 242   0.0000       0.135239         3.6800 
 243   0.0000       0.136964         3.7270 
 244   0.0000       0.157268         4.2795 
 245   0.0000       0.157283         4.2799 
 246   0.0000       0.157343         4.2815 
 247   0.0000       0.190540         5.1849 
 248   0.0000       0.197482         5.3738 
 249   0.0000       0.197564         5.3760 
 250   0.0000       0.199732         5.4350 
 251   0.0000       0.200697         5.4613 
 252   0.0000       0.200838         5.4651 
 253   0.0000       0.202726         5.5165 
 254   0.0000       0.204845         5.5741 
 255   0.0000       0.205313         5.5868 
 256   0.0000       0.205354         5.5880 
 257   0.0000       0.207344         5.6421 
 258   0.0000       0.211275         5.7491 
 259   0.0000       0.211377         5.7519 
 260   0.0000       0.212909         5.7936 
 261   0.0000       0.215702         5.8695 
 262   0.0000       0.215821         5.8728 
 263   0.0000       0.217125         5.9083 
 264   0.0000       0.217260         5.9120 
 265   0.0000       0.221084         6.0160 
 266   0.0000       0.222253         6.0478 
 267   0.0000       0.222316         6.0495 
 268   0.0000       0.225944         6.1482 
 269   0.0000       0.229702         6.2505 
 270   0.0000       0.229786         6.2528 
 271   0.0000       0.230603         6.2750 
 272   0.0000       0.240979         6.5574 
 273   0.0000       0.244264         6.6468 
 274   0.0000       0.244348         6.6490 
 275   0.0000       0.247555         6.7363 
 276   0.0000       0.249351         6.7852 
 277   0.0000       0.249806         6.7976 
 278   0.0000       0.249872         6.7994 
 279   0.0000       0.251355         6.8397 
 280   0.0000       0.251424         6.8416 
 281   0.0000       0.254258         6.9187 
 282   0.0000       0.255634         6.9561 
 283   0.0000       0.255642         6.9564 
 284   0.0000       0.258695         7.0394 
 285   0.0000       0.258958         7.0466 
 286   0.0000       0.259028         7.0485 
 287   0.0000       0.263442         7.1686 
 288   0.0000       0.263471         7.1694 
 289   0.0000       0.263673         7.1749 
 290   0.0000       0.267779         7.2866 
 291   0.0000       0.267907         7.2901 
 292   0.0000       0.270774         7.3681 
 293   0.0000       0.271681         7.3928 
 294   0.0000       0.273066         7.4305 
 295   0.0000       0.273217         7.4346 
 296   0.0000       0.273645         7.4463 
 297   0.0000       0.280088         7.6216 
 298   0.0000       0.281149         7.6505 
 299   0.0000       0.281264         7.6536 
 300   0.0000       0.285531         7.7697 
 301   0.0000       0.286009         7.7827 
 302   0.0000       0.286073         7.7845 
 303   0.0000       0.287263         7.8168 
 304   0.0000       0.288107         7.8398 
 305   0.0000       0.288181         7.8418 
 306   0.0000       0.290497         7.9048 
 307   0.0000       0.291131         7.9221 
 308   0.0000       0.291147         7.9225 
 309   0.0000       0.292293         7.9537 
 310   0.0000       0.292533         7.9602 
 311   0.0000       0.294434         8.0119 
 312   0.0000       0.294625         8.0172 
 313   0.0000       0.297165         8.0863 
 314   0.0000       0.299199         8.1416 
 315   0.0000       0.299688         8.1549 
 316   0.0000       0.301176         8.1954 
 317   0.0000       0.301611         8.2073 
 318   0.0000       0.302592         8.2340 
 319   0.0000       0.307905         8.3785 
 320   0.0000       0.307972         8.3803 
 321   0.0000       0.317483         8.6392 
 322   0.0000       0.320547         8.7225 
 323   0.0000       0.320612         8.7243 
 324   0.0000       0.327166         8.9026 
 325   0.0000       0.327250         8.9049 
 326   0.0000       0.330194         8.9850 
 327   0.0000       0.333429         9.0731 
 328   0.0000       0.337250         9.1770 
 329   0.0000       0.337534         9.1848 
 330   0.0000       0.338354         9.2071 
 331   0.0000       0.340015         9.2523 
 332   0.0000       0.340121         9.2552 
 333   0.0000       0.341826         9.3015 
 334   0.0000       0.341980         9.3057 
 335   0.0000       0.342040         9.3074 
 336   0.0000       0.352759         9.5991 
 337   0.0000       0.354348         9.6423 
 338   0.0000       0.354637         9.6502 
 339   0.0000       0.361814         9.8455 
 340   0.0000       0.363545         9.8926 
 341   0.0000       0.363766         9.8986 
 342   0.0000       0.364040         9.9060 
 343   0.0000       0.369157        10.0453 
 344   0.0000       0.369382        10.0514 
 345   0.0000       0.375795        10.2259 
 346   0.0000       0.376021        10.2321 
 347   0.0000       0.376109        10.2345 
 348   0.0000       0.378097        10.2886 
 349   0.0000       0.378166        10.2904 
 350   0.0000       0.379715        10.3326 
 351   0.0000       0.382180        10.3997 
 352   0.0000       0.386292        10.5115 
 353   0.0000       0.386521        10.5178 
 354   0.0000       0.387255        10.5378 
 355   0.0000       0.389116        10.5884 
 356   0.0000       0.389399        10.5961 
 357   0.0000       0.390127        10.6159 
 358   0.0000       0.392602        10.6832 
 359   0.0000       0.397864        10.8264 
 360   0.0000       0.397999        10.8301 
 361   0.0000       0.398765        10.8509 
 362   0.0000       0.399382        10.8677 
 363   0.0000       0.399461        10.8699 
 364   0.0000       0.404724        11.0131 
 365   0.0000       0.404791        11.0149 
 366   0.0000       0.405397        11.0314 
 367   0.0000       0.407998        11.1022 
 368   0.0000       0.408047        11.1035 
 369   0.0000       0.409819        11.1517 
 370   0.0000       0.412354        11.2207 
 371   0.0000       0.412794        11.2327 
 372   0.0000       0.412947        11.2369 
[...]
      pz      :     0.015051  p :     0.058034
      px      :     0.013677
      py      :     0.029305
117 H s       :     0.827847  s :     0.827847
      pz      :     0.019342  p :     0.058864
      px      :     0.025087
      py      :     0.014434
118 C s       :     2.840916  s :     2.840916
      pz      :     1.022636  p :     3.149361
      px      :     1.064695
      py      :     1.062030
      dz2     :     0.054844  d :     0.249292
      dxz     :     0.064783
      dyz     :     0.062325
      dx2y2   :     0.015265
      dxy     :     0.052076
119 H s       :     0.827788  s :     0.827788
      pz      :     0.016378  p :     0.058876
      px      :     0.028710
      py      :     0.013788
120 H s       :     0.840981  s :     0.840981
      pz      :     0.011933  p :     0.058022
      px      :     0.022083
      py      :     0.024006
121 H s       :     0.826172  s :     0.826172
      pz      :     0.017201  p :     0.059896
      px      :     0.014649
      py      :     0.028046
122 C s       :     2.841139  s :     2.841139
      pz      :     1.056264  p :     3.149084
      px      :     1.040159
      py      :     1.052661
      dz2     :     0.077364  d :     0.249228
      dxz     :     0.035856
      dyz     :     0.026232
      dx2y2   :     0.044098
      dxy     :     0.065678
123 H s       :     0.826098  s :     0.826098
      pz      :     0.033704  p :     0.059841
      px      :     0.014071
      py      :     0.012066
124 H s       :     0.827649  s :     0.827649
      pz      :     0.012091  p :     0.058878
      px      :     0.025602
      py      :     0.021186
125 H s       :     0.841090  s :     0.841090
      pz      :     0.014811  p :     0.058033
      px      :     0.013900
      py      :     0.029322
126 C s       :     2.837366  s :     2.837366
      pz      :     1.063828  p :     3.157663
      px      :     1.062486
      py      :     1.031350
      dz2     :     0.075196  d :     0.253057
      dxz     :     0.026189
      dyz     :     0.034365
      dx2y2   :     0.038801
      dxy     :     0.078507
127 H s       :     0.826487  s :     0.826487
      pz      :     0.016039  p :     0.059206
      px      :     0.029169
      py      :     0.013998
128 H s       :     0.826456  s :     0.826456
      pz      :     0.034132  p :     0.059236
      px      :     0.012668
      py      :     0.012435
129 H s       :     0.838426  s :     0.838426
      pz      :     0.012472  p :     0.057924
      px      :     0.022650
      py      :     0.022802


                      *****************************
                      * MAYER POPULATION ANALYSIS *
                      *****************************

  NA   - Mulliken gross atomic population
  ZA   - Total nuclear charge
  QA   - Mulliken gross atomic charge
  VA   - Mayer's total valence
  BVA  - Mayer's bonded valence
  FA   - Mayer's free valence

  ATOM       NA         ZA         QA         VA         BVA        FA
  0 O      8.6171     8.0000    -0.6171     1.9630     1.9630    -0.0000
  1 O      8.7078     8.0000    -0.7078     1.2658     1.2658    -0.0000
  2 O      8.6173     8.0000    -0.6173     1.9627     1.9627     0.0000
  3 O      8.6173     8.0000    -0.6173     1.9630     1.9630    -0.0000
  4 O      8.7118     8.0000    -0.7118     1.2643     1.2643    -0.0000
  5 O      8.6173     8.0000    -0.6173     1.9600     1.9600     0.0000
  6 N      7.3582     7.0000    -0.3582     3.2351     3.2351    -0.0000
  7 H      0.7057     1.0000     0.2943     0.9449     0.9449    -0.0000
  8 O      8.6170     8.0000    -0.6170     1.9606     1.9606    -0.0000
  9 N      7.3559     7.0000    -0.3559     3.2366     3.2366     0.0000
 10 H      0.7077     1.0000     0.2923     0.9462     0.9462     0.0000
 11 N      7.3506     7.0000    -0.3506     3.2329     3.2329    -0.0000
 12 H      0.7085     1.0000     0.2915     0.9416     0.9416    -0.0000
 13 O      8.6172     8.0000    -0.6172     1.9605     1.9605    -0.0000
 14 N      7.3516     7.0000    -0.3516     3.2350     3.2350    -0.0000
 15 H      0.7042     1.0000     0.2958     0.9360     0.9360    -0.0000
 16 N      7.3503     7.0000    -0.3503     3.2321     3.2321    -0.0000
 17 H      0.7101     1.0000     0.2899     0.9440     0.9440    -0.0000
 18 N      7.2752     7.0000    -0.2752     3.0109     3.0109    -0.0000
 19 N      7.3562     7.0000    -0.3562     3.2357     3.2357    -0.0000
 20 H      0.7096     1.0000     0.2904     0.9497     0.9497     0.0000
 21 N      7.2747     7.0000    -0.2747     3.0108     3.0108    -0.0000
 22 C      6.0560     6.0000    -0.0560     3.8987     3.8987    -0.0000
 23 H      0.8683     1.0000     0.1317     0.9484     0.9484    -0.0000
 24 H      0.9234     1.0000     0.0766     1.0059     1.0059    -0.0000
 25 C      5.6788     6.0000     0.3212     3.7106     3.7106     0.0000
 26 C      6.4179     6.0000    -0.4179     3.7814     3.7814     0.0000
 27 H      0.9132     1.0000     0.0868     1.0349     1.0349     0.0000
 28 C      5.4544     6.0000     0.5456     3.2111     3.2111     0.0000
 29 C      5.7071     6.0000     0.2929     4.1774     4.1774    -0.0000
 30 C      5.7067     6.0000     0.2933     4.1763     4.1763     0.0000
 31 C      5.4558     6.0000     0.5442     3.2133     3.2133    -0.0000
 32 C      6.4359     6.0000    -0.4359     3.8703     3.8703    -0.0000
 33 H      0.9194     1.0000     0.0806     1.0417     1.0417    -0.0000
 34 C      6.4173     6.0000    -0.4173     3.7805     3.7805    -0.0000
 35 H      0.9133     1.0000     0.0867     1.0349     1.0349    -0.0000
 36 C      6.3904     6.0000    -0.3904     4.0760     4.0760    -0.0000
 37 H      0.6470     1.0000     0.3530     0.7413     0.7413     0.0000
 38 C      5.7123     6.0000     0.2877     3.7609     3.7609     0.0000
 39 C      6.0863     6.0000    -0.0863     3.9056     3.9056     0.0000
 40 H      0.9001     1.0000     0.0999     0.9874     0.9874    -0.0000
 41 H      0.9569     1.0000     0.0431     0.9669     0.9669    -0.0000
 42 C      6.4377     6.0000    -0.4377     3.8655     3.8655    -0.0000
 43 H      0.9200     1.0000     0.0800     1.0421     1.0421    -0.0000
 44 C      5.4524     6.0000     0.5476     3.2067     3.2067    -0.0000
 45 C      5.7120     6.0000     0.2880     4.1701     4.1701     0.0000
 46 C      6.0847     6.0000    -0.0847     3.9013     3.9013    -0.0000
 47 H      0.8997     1.0000     0.1003     0.9876     0.9876    -0.0000
 48 H      0.9572     1.0000     0.0428     0.9671     0.9671    -0.0000
 49 C      6.0851     6.0000    -0.0851     3.9040     3.9040    -0.0000
 50 H      0.9002     1.0000     0.0998     0.9877     0.9877     0.0000
 51 H      0.9569     1.0000     0.0431     0.9670     0.9670    -0.0000
 52 C      5.7150     6.0000     0.2850     3.7665     3.7665    -0.0000
 53 C      6.0572     6.0000    -0.0572     3.8991     3.8991    -0.0000
 54 H      0.8687     1.0000     0.1313     0.9482     0.9482    -0.0000
 55 H      0.9230     1.0000     0.0770     1.0064     1.0064    -0.0000
 56 C      5.6808     6.0000     0.3192     3.7125     3.7125    -0.0000
 57 C      6.0570     6.0000    -0.0570     3.9007     3.9007    -0.0000
 58 H      0.8686     1.0000     0.1314     0.9480     0.9480    -0.0000
 59 H      0.9234     1.0000     0.0766     1.0065     1.0065     0.0000
 60 C      5.9245     6.0000     0.0755     3.7767     3.7767    -0.0000
 61 C      5.7103     6.0000     0.2897     4.1687     4.1687    -0.0000
 62 C      6.3866     6.0000    -0.3866     4.0718     4.0718    -0.0000
 63 H      0.6557     1.0000     0.3443     0.7561     0.7561    -0.0000
 64 C      6.0540     6.0000    -0.0540     3.8998     3.8998    -0.0000
 65 H      0.8699     1.0000     0.1301     0.9494     0.9494     0.0000
 66 H      0.9242     1.0000     0.0758     1.0059     1.0059    -0.0000
 67 C      6.4168     6.0000    -0.4168     3.7821     3.7821    -0.0000
 68 H      0.9139     1.0000     0.0861     1.0349     1.0349    -0.0000
 69 C      5.7065     6.0000     0.2935     4.1765     4.1765    -0.0000
 70 C      5.7132     6.0000     0.2868     3.7613     3.7613    -0.0000
 71 C      6.0832     6.0000    -0.0832     3.9001     3.9001    -0.0000
 72 H      0.9000     1.0000     0.1000     0.9874     0.9874    -0.0000
 73 H      0.9574     1.0000     0.0426     0.9671     0.9671    -0.0000
 74 C      6.0569     6.0000    -0.0569     3.8974     3.8974     0.0000
 75 H      0.8674     1.0000     0.1326     0.9476     0.9476     0.0000
 76 H      0.9230     1.0000     0.0770     1.0064     1.0064     0.0000
 77 C      6.4386     6.0000    -0.4386     3.8670     3.8670    -0.0000
 78 H      0.9199     1.0000     0.0801     1.0420     1.0420    -0.0000
 79 C      6.0855     6.0000    -0.0855     3.9026     3.9026    -0.0000
 80 H      0.8995     1.0000     0.1005     0.9879     0.9879     0.0000
 81 H      0.9570     1.0000     0.0430     0.9669     0.9669    -0.0000
 82 C      6.0835     6.0000    -0.0835     3.9032     3.9032    -0.0000
 83 H      0.9005     1.0000     0.0995     0.9877     0.9877    -0.0000
 84 H      0.9571     1.0000     0.0429     0.9671     0.9671     0.0000
 85 C      5.6772     6.0000     0.3228     3.7048     3.7048    -0.0000
 86 C      6.3879     6.0000    -0.3879     4.0705     4.0705    -0.0000
 87 H      0.6551     1.0000     0.3449     0.7560     0.7560    -0.0000
 88 C      6.3550     6.0000    -0.3550     3.8772     3.8772    -0.0000
 89 H      0.8816     1.0000     0.1184     0.9699     0.9699    -0.0000
 90 H      0.9264     1.0000     0.0736     0.9629     0.9629    -0.0000
 91 H      0.8930     1.0000     0.1070     0.9729     0.9729    -0.0000
 92 C      5.7124     6.0000     0.2876     4.1730     4.1730    -0.0000
 93 C      5.9262     6.0000     0.0738     3.7788     3.7788    -0.0000
 94 C      5.9252     6.0000     0.0748     3.7769     3.7769     0.0000
 95 C      6.0569     6.0000    -0.0569     3.8987     3.8987    -0.0000
 96 H      0.8679     1.0000     0.1321     0.9480     0.9480    -0.0000
 97 H      0.9233     1.0000     0.0767     1.0060     1.0060     0.0000
 98 C      6.3549     6.0000    -0.3549     3.8780     3.8780    -0.0000
 99 H      0.8822     1.0000     0.1178     0.9700     0.9700    -0.0000
100 H      0.8919     1.0000     0.1081     0.9727     0.9727    -0.0000
101 H      0.9267     1.0000     0.0733     0.9629     0.9629    -0.0000
102 C      6.3582     6.0000    -0.3582     3.8898     3.8898    -0.0000
103 H      0.8834     1.0000     0.1166     0.9705     0.9705    -0.0000
104 H      0.8841     1.0000     0.1159     0.9705     0.9705    -0.0000
105 H      0.9167     1.0000     0.0833     0.9657     0.9657    -0.0000
106 C      6.3581     6.0000    -0.3581     3.8906     3.8906    -0.0000
107 H      0.9167     1.0000     0.0833     0.9656     0.9656    -0.0000
108 H      0.8836     1.0000     0.1164     0.9705     0.9705    -0.0000
109 H      0.8839     1.0000     0.1161     0.9706     0.9706    -0.0000
110 C      6.3538     6.0000    -0.3538     3.8774     3.8774     0.0000
111 H      0.9267     1.0000     0.0733     0.9628     0.9628     0.0000
112 H      0.8925     1.0000     0.1075     0.9730     0.9730     0.0000
113 H      0.8820     1.0000     0.1180     0.9700     0.9700     0.0000
114 C      6.3549     6.0000    -0.3549     3.8775     3.8775    -0.0000
115 H      0.8815     1.0000     0.1185     0.9700     0.9700    -0.0000
116 H      0.9265     1.0000     0.0735     0.9630     0.9630    -0.0000
117 H      0.8929     1.0000     0.1071     0.9728     0.9728    -0.0000
118 C      6.3551     6.0000    -0.3551     3.8776     3.8776     0.0000
119 H      0.8928     1.0000     0.1072     0.9728     0.9728     0.0000
120 H      0.9265     1.0000     0.0735     0.9631     0.9631     0.0000
121 H      0.8820     1.0000     0.1180     0.9699     0.9699     0.0000
122 C      6.3543     6.0000    -0.3543     3.8783     3.8783    -0.0000
123 H      0.8823     1.0000     0.1177     0.9700     0.9700    -0.0000
124 H      0.8922     1.0000     0.1078     0.9728     0.9728    -0.0000
125 H      0.9268     1.0000     0.0732     0.9630     0.9630    -0.0000
126 C      6.3579     6.0000    -0.3579     3.8895     3.8895     0.0000
127 H      0.8838     1.0000     0.1162     0.9706     0.9706     0.0000
128 H      0.8834     1.0000     0.1166     0.9704     0.9704     0.0000
129 H      0.9166     1.0000     0.0834     0.9656     0.9656     0.0000

  Mayer bond orders larger than 0.1
B(  0-O , 29-C ) :   1.7923 B(  0-O , 52-C ) :  -0.1335 B(  1-O ,  4-O ) :   0.7479 
B(  1-O ,  7-H ) :   0.1369 B(  1-O , 10-H ) :   0.1344 B(  1-O , 20-H ) :   0.1387 
B(  2-O , 30-C ) :   1.7909 B(  2-O , 38-C ) :  -0.1322 B(  3-O , 69-C ) :   1.7910 
B(  3-O , 70-C ) :  -0.1326 B(  4-O , 12-H ) :   0.1312 B(  4-O , 15-H ) :   0.1257 
B(  4-O , 17-H ) :   0.1307 B(  5-O , 45-C ) :   1.7832 B(  6-N ,  7-H ) :   0.7864 
B(  6-N , 22-C ) :   0.9909 B(  6-N , 29-C ) :   1.3946 B(  8-O , 61-C ) :   1.7833 
B(  9-N , 10-H ) :   0.7896 B(  9-N , 30-C ) :   1.3946 B(  9-N , 74-C ) :   0.9891 
B( 11-N , 12-H ) :   0.7926 B( 11-N , 45-C ) :   1.3917 B( 11-N , 64-C ) :   0.9915 
B( 13-O , 92-C ) :   1.7843 B( 14-N , 15-H ) :   0.7938 B( 14-N , 53-C ) :   0.9897 
B( 14-N , 92-C ) :   1.3920 B( 16-N , 17-H ) :   0.7943 B( 16-N , 57-C ) :   0.9890 
B( 16-N , 61-C ) :   1.3908 B( 18-N , 39-C ) :   0.9824 B( 18-N , 49-C ) :   0.9815 
B( 18-N , 82-C ) :   0.9816 B( 19-N , 20-H ) :   0.7882 B( 19-N , 69-C ) :   1.3950 
B( 19-N , 95-C ) :   0.9902 B( 21-N , 46-C ) :   0.9813 B( 21-N , 71-C ) :   0.9815 
B( 21-N , 79-C ) :   0.9821 B( 22-C , 23-H ) :   0.9532 B( 22-C , 24-H ) :   0.9426 
B( 22-C , 49-C ) :   0.9622 B( 25-C , 26-C ) :   1.3341 B( 25-C , 45-C ) :   0.8966 
B( 25-C , 62-C ) :   1.5013 B( 26-C , 27-H ) :   0.9918 B( 26-C , 28-C ) :   1.2284 
B( 28-C , 42-C ) :   1.2174 B( 28-C , 43-H ) :  -0.1142 B( 28-C , 94-C ) :   0.9379 
B( 29-C , 52-C ) :   0.9025 B( 30-C , 38-C ) :   0.9032 B( 31-C , 32-C ) :   1.2193 
B( 31-C , 33-H ) :  -0.1136 B( 31-C , 60-C ) :   0.9373 B( 31-C , 67-C ) :   1.2286 
B( 32-C , 33-H ) :   0.9825 B( 32-C , 52-C ) :   1.4014 B( 34-C , 35-H ) :   0.9917 
B( 34-C , 44-C ) :   1.2281 B( 34-C , 56-C ) :   1.3334 B( 36-C , 37-H ) :   0.7764 
B( 36-C , 56-C ) :   1.5026 B( 36-C , 70-C ) :   1.4979 B( 38-C , 42-C ) :   1.3985 
B( 38-C , 62-C ) :   1.4980 B( 39-C , 40-H ) :   0.9600 B( 39-C , 41-H ) :   0.9444 
B( 39-C , 74-C ) :   0.9621 B( 42-C , 43-H ) :   0.9844 B( 44-C , 77-C ) :   1.2171 
B( 44-C , 78-H ) :  -0.1146 B( 44-C , 93-C ) :   0.9369 B( 46-C , 47-H ) :   0.9601 
B( 46-C , 48-H ) :   0.9440 B( 46-C , 57-C ) :   0.9625 B( 49-C , 50-H ) :   0.9597 
B( 49-C , 51-H ) :   0.9445 B( 52-C , 86-C ) :   1.5008 B( 53-C , 54-H ) :   0.9534 
B( 53-C , 55-H ) :   0.9428 B( 53-C , 71-C ) :   0.9619 B( 56-C , 61-C ) :   0.8970 
B( 57-C , 58-H ) :   0.9533 B( 57-C , 59-H ) :   0.9427 B( 60-C , 88-C ) :   0.9515 
B( 60-C , 98-C ) :   0.9520 B( 60-C ,102-C ) :   0.9606 B( 62-C , 63-H ) :   0.7793 
B( 64-C , 65-H ) :   0.9532 B( 64-C , 66-H ) :   0.9425 B( 64-C , 79-C ) :   0.9631 
B( 67-C , 68-H ) :   0.9921 B( 67-C , 85-C ) :   1.3342 B( 69-C , 70-C ) :   0.9028 
B( 70-C , 77-C ) :   1.3987 B( 71-C , 72-H ) :   0.9603 B( 71-C , 73-H ) :   0.9441 
B( 74-C , 75-H ) :   0.9530 B( 74-C , 76-H ) :   0.9426 B( 77-C , 78-H ) :   0.9844 
B( 79-C , 80-H ) :   0.9597 B( 79-C , 81-H ) :   0.9442 B( 82-C , 83-H ) :   0.9594 
B( 82-C , 84-H ) :   0.9443 B( 82-C , 95-C ) :   0.9622 B( 85-C , 86-C ) :   1.4962 
B( 85-C , 92-C ) :   0.8972 B( 86-C , 87-H ) :   0.7783 B( 88-C , 89-H ) :   0.9732 
B( 88-C , 90-H ) :   0.9684 B( 88-C , 91-H ) :   0.9802 B( 93-C ,106-C ) :   0.9614 
B( 93-C ,114-C ) :   0.9522 B( 93-C ,122-C ) :   0.9524 B( 94-C ,110-C ) :   0.9514 
B( 94-C ,118-C ) :   0.9514 B( 94-C ,126-C ) :   0.9613 B( 95-C , 96-H ) :   0.9524 
B( 95-C , 97-H ) :   0.9431 B( 98-C , 99-H ) :   0.9734 B( 98-C ,100-H ) :   0.9799 
B( 98-C ,101-H ) :   0.9683 B(102-C ,103-H ) :   0.9802 B(102-C ,104-H ) :   0.9796 
B(102-C ,105-H ) :   0.9735 B(106-C ,107-H ) :   0.9734 B(106-C ,108-H ) :   0.9798 
B(106-C ,109-H ) :   0.9798 B(110-C ,111-H ) :   0.9681 B(110-C ,112-H ) :   0.9799 
B(110-C ,113-H ) :   0.9737 B(114-C ,115-H ) :   0.9732 B(114-C ,116-H ) :   0.9684 
B(114-C ,117-H ) :   0.9801 B(118-C ,119-H ) :   0.9799 B(118-C ,120-H ) :   0.9685 
B(118-C ,121-H ) :   0.9735 B(122-C ,123-H ) :   0.9731 B(122-C ,124-H ) :   0.9800 
B(122-C ,125-H ) :   0.9685 B(126-C ,127-H ) :   0.9801 B(126-C ,128-H ) :   0.9797 
B(126-C ,129-H ) :   0.9732 

-------
TIMINGS
-------

Total SCF time: 0 days 5 hours 42 min 28 sec 

Total time                  ....   20548.851 sec
Sum of individual times     ....   20616.199 sec  (100.3%)

Fock matrix formation       ....   20339.700 sec  ( 99.0%)
  Coulomb formation         ....   20123.764 sec  ( 98.9% of F)
  XC integration            ....     212.512 sec  (  1.0% of F)
    Basis function eval.    ....      53.222 sec  ( 25.0% of XC)
    Density eval.           ....      73.256 sec  ( 34.5% of XC)
    XC-Functional eval.     ....       2.423 sec  (  1.1% of XC)
    XC-Potential eval.      ....      58.614 sec  ( 27.6% of XC)
Diagonalization             ....      33.489 sec  (  0.2%)
Density matrix formation    ....       4.078 sec  (  0.0%)
Population analysis         ....      62.942 sec  (  0.3%)
Initial guess               ....      54.581 sec  (  0.3%)
Orbital Transformation      ....       0.000 sec  (  0.0%)
Orbital Orthonormalization  ....       0.000 sec  (  0.0%)
DIIS solution               ....      32.799 sec  (  0.2%)
SOSCF solution              ....      22.440 sec  (  0.1%)
Grid generation             ....      66.169 sec  (  0.3%)
           ************************************************************
           *              Shut down parallel processing               *
           ************************************************************

-------------------------   --------------------
FINAL SINGLE POINT ENERGY     -2908.091929380899
-------------------------   --------------------


                            ***************************************
                            *     ORCA property calculations      *
                            ***************************************

                                    ---------------------
                                    Active property flags
                                    ---------------------
   (+) Dipole Moment


------------------------------------------------------------------------------
                       ORCA ELECTRIC PROPERTIES CALCULATION
------------------------------------------------------------------------------

Dipole Moment Calculation                       ... on
Quadrupole Moment Calculation                   ... off
Polarizability Calculation                      ... off
GBWName                                         ... peroxide_peroxide.gbw
Electron density file                           ... peroxide_peroxide.scfp.tmp

-------------
DIPOLE MOMENT
-------------
                                X             Y             Z
Electronic contribution:      0.52010      -0.71776       1.24307
Nuclear contribution   :     -0.54835       0.75529      -1.30664
                        -----------------------------------------
Total Dipole Moment    :     -0.02825       0.03753      -0.06358
                        -----------------------------------------
Magnitude (a.u.)       :      0.07905
Magnitude (Debye)      :      0.20092


Timings for individual modules:

Sum of individual times         ...    20637.598 sec (= 343.960 min)
GTO integral calculation        ...       27.129 sec (=   0.452 min)   0.1 %
SCF iterations                  ...    20610.469 sec (= 343.508 min)  99.9 %
                             ****ORCA TERMINATED NORMALLY****
TOTAL RUN TIME: 0 days 5 hours 44 minutes 8 seconds 365 msec
