
                                 *****************
                                 * O   R   C   A *
                                 *****************

           --- An Ab Initio, DFT and Semiempirical electronic structure package ---

                  #######################################################
                  #                        -***-                        #
                  #  Department of molecular theory and spectroscopy    #
                  #              Directorship: Frank Neese              #
                  # Max Planck Institute for Chemical Energy Conversion #
                  #                  D-45470 Muelheim/Ruhr              #
                  #                       Germany                       #
                  #                                                     #
                  #                  All rights reserved                #
                  #                        -***-                        #
                  #######################################################


                         Program Version 3.0.0 -  RELEASE  -


 With contributions from (in alphabetic order):
   Ute Becker             : Parallelization
   Dmytro Bykov           : SCF Hessian
   Dmitry Ganyushin       : Spin-Orbit,Spin-Spin,Magnetic field MRCI
   Andreas Hansen         : Spin unrestricted coupled pair/coupled cluster methods
   Dimitrios Liakos       : Extrapolation schemes; parallel MDCI
   Robert Izsak           : Overlap fitted RIJCOSX, COSX-SCS-MP3
   Christian Kollmar      : KDIIS, OOCD, Brueckner-CCSD(T), CCSD density
   Simone Kossmann        : Meta GGA functionals, TD-DFT gradient, OOMP2, MP2 Hessian
   Taras Petrenko         : DFT Hessian,TD-DFT gradient, ASA and ECA modules, normal mode analysis, Resonance Raman, ABS, FL, XAS/XES, NRVS
   Christoph Reimann      : Effective Core Potentials
   Michael Roemelt        : Restricted open shell CIS
   Christoph Riplinger    : Improved optimizer, TS searches, QM/MM, DLPNO-CCSD
   Barbara Sandhoefer     : DKH picture change effects
   Igor Schapiro          : Molecular dynamics
   Kantharuban Sivalingam : CASSCF convergence, NEVPT2
   Boris Wezisla          : Elementary symmetry handling
   Frank Wennmohs         : Technical directorship


 We gratefully acknowledge several colleagues who have allowed us to
 interface, adapt or use parts of their codes:
   Stefan Grimme, W. Hujo, H. Kruse, T. Risthaus : VdW corrections, initial TS optimization,
                                                   DFT functionals, gCP
   Ed Valeev                                     : LibInt (2-el integral package), F12 methods
   Garnet Chan, S. Sharma, R. Olivares           : DMRG
   Ulf Ekstrom                                   : XCFun DFT Library
   Mihaly Kallay                                 : mrcc  (arbitrary order and MRCC methods)
   Andreas Klamt, Michael Diedenhofen            : otool_cosmo (COSMO solvation model)
   Frank Weinhold                                : gennbo (NPA and NBO analysis)


 Your calculation uses the libint2 library for the computation of 2-el integrals
 For citations please refer to: http://libint.valeyev.net

 This ORCA versions uses:
   CBLAS   interface :  Fast vector & matrix operations
   LAPACKE interface :  Fast linear algebra routines
   SCALAPACK package :  Parallel linear algebra routines


This is DEFAULT-BASIS-4 based on the Ahlrichs basis sets
Cite in your paper:
H - Kr: A. Schaefer, H. Horn and R. Ahlrichs, J. Chem. Phys. 97, 2571 (1992).
   

Your calculation utilizes the basis: Ahlrichs-TZV
Cite in your paper:
H - Kr: A. Schaefer, H. Horn and R. Ahlrichs, J. Chem. Phys. 97, 2571 (1992).

The def2-TZV basis will be loaded
Cite in your paper:
 	F. Weigend, R. Ahlrichs, Phys. Chem. Chem. Phys. 2005, 7, 3297.

Your calculation utilizes pol. fcns from the TurboMole library
Cite in your paper:
The Ahlrichs (2d,2p) polarization functions were obtained from the TurboMole
basis set library under ftp.chemie.uni-karlsruhe.de/pub/basen

Your calculation utilizes the basis: Ahlrichs-TZV
Cite in your paper:
H - Kr: A. Schaefer, H. Horn and R. Ahlrichs, J. Chem. Phys. 97, 2571 (1992).

The def2-TZV basis will be loaded
Cite in your paper:
 	F. Weigend, R. Ahlrichs, Phys. Chem. Chem. Phys. 2005, 7, 3297.

Your calculation utilizes pol. fcns from the TurboMole library
Cite in your paper:
The Ahlrichs (2d2fg,3p2df) polarization functions were obtained from the TurboMole
basis set library under ftp.chemie.uni-karlsruhe.de/pub/basen
Sc-Zn: 2p functions from Wachters JCP, 52 (1970), 1033
       plus one f-function from the TurboMole library



*****************************************
The coordinations will be read from file: superoxide.xyz
*****************************************


================================================================================
                                        WARNINGS
                       Please study these warnings very carefully!
================================================================================
Now building the actual basis set
WARNING: RI approximation not ON but aux-basis present - now normalizing!

WARNING: your system is open-shell and RHF/RKS was chosen
  ===> : WILL SWITCH to UHF/UKS



INFO   : the flag for use of LIBINT has been found!

================================================================================
                                       INPUT FILE
================================================================================
NAME = superoxide_superoxide.inp
|  1> !PAL8
|  2> ! DFT-Energy
|  3> * xyzfile -1 2 superoxide.xyz *
|  4> 
|  5> 
|  6>                          ****END OF INPUT****
================================================================================

                       ****************************
                       * Single Point Calculation *
                       ****************************

---------------------------------
CARTESIAN COORDINATES (ANGSTROEM)
---------------------------------
  O      0.000000    0.000000    0.071550
  O      0.000000    0.000000    1.426450

----------------------------
CARTESIAN COORDINATES (A.U.)
----------------------------
  NO LB      ZA    FRAG    MASS        X           Y           Z
   0 O     8.0000    0    15.999          0.000000000000000          0.000000000000000          0.135209759678438
   1 O     8.0000    0    15.999          0.000000000000000          0.000000000000000          2.695599988935597

--------------------------------
INTERNAL COORDINATES (ANGSTROEM)
--------------------------------
 O      0   0   0   0.000000     0.000     0.000
 O      1   0   0   1.354900     0.000     0.000

---------------------------
INTERNAL COORDINATES (A.U.)
---------------------------
 O      0   0   0   0.000000     0.000     0.000
 O      1   0   0   2.560390     0.000     0.000

---------------------
BASIS SET INFORMATION
---------------------
There are 1 groups of distinct atoms

 Group   1 Type O   : 11s6p2d contracted to 5s3p2d pattern {62111/411/11}

Atom   0O    basis set group =>   1
Atom   1O    basis set group =>   1

INFORMATION: There is an auxiliary basis set but the global RI flag is NOT set

-------------------------------
AUXILIARY BASIS SET INFORMATION
-------------------------------
There are 1 groups of distinct atoms

 Group   1 Type O   : 12s5p4d2f1g contracted to 6s4p3d1f1g pattern {711111/2111/211/2/1}

Atom   0O    basis set group =>   1
Atom   1O    basis set group =>   1


           ************************************************************
           *        Program running with 8 parallel MPI-processes     *
           *              working on a common directory               *
           ************************************************************
------------------------------------------------------------------------------
                           ORCA GTO INTEGRAL CALCULATION
------------------------------------------------------------------------------

                         BASIS SET STATISTICS AND STARTUP INFO

 # of primitive gaussian shells          ...   38
 # of primitive gaussian functions       ...   78
 # of contracted shell                   ...   20
 # of contracted basis functions         ...   48
 Highest angular momentum                ...    2
 Maximum contraction depth               ...    6
 Integral package used                   ... LIBINT
 Integral threshhold            Thresh   ...  1.000e-10
 Primitive cut-off              TCut     ...  1.000e-11


                              INTEGRAL EVALUATION

 One electron integrals                  ... done
 Pre-screening matrix                    ... done
 Shell pair data                         ... done (   0.000 sec)

           ************************************************************
           *              Shut down parallel processing               *
           ************************************************************


           ************************************************************
           *        Program running with 8 parallel MPI-processes     *
           *              working on a common directory               *
           ************************************************************
-------------------------------------------------------------------------------
                                 ORCA SCF
-------------------------------------------------------------------------------

------------
SCF SETTINGS
------------
Hamiltonian:
 Density Functional     Method          .... DFT(GTOs)
 Exchange Functional    Exchange        .... B88
   X-Alpha parameter    XAlpha          ....  0.666667
   Becke's b parameter  XBeta           ....  0.004200
 Correlation Functional Correlation     .... LYP
 LDA part of GGA corr.  LDAOpt          .... VWN-5
 Gradients option       PostSCFGGA      .... off
 Hybrid DFT is turned on
   Fraction HF Exchange ScalHFX         ....  0.200000
   Scaling of DF-GGA-X  ScalDFX         ....  0.720000
   Scaling of DF-GGA-C  ScalDFC         ....  0.810000
   Scaling of DF-LDA-C  ScalLDAC        ....  1.000000
   Perturbative correction              ....  0.000000
   NL short-range parameter             ....  4.800000


General Settings:
 Integral files         IntName         .... superoxide_superoxide
 Hartree-Fock type      HFTyp           .... UHF
 Total Charge           Charge          ....   -1
 Multiplicity           Mult            ....    2
 Number of Electrons    NEL             ....   17
 Basis Dimension        Dim             ....   48
 Nuclear Repulsion      ENuc            ....     24.9961897482 Eh

Convergence Acceleration:
 DIIS                   CNVDIIS         .... on
   Start iteration      DIISMaxIt       ....    12
   Startup error        DIISStart       ....  0.200000
   # of expansion vecs  DIISMaxEq       ....     5
   Bias factor          DIISBfac        ....   1.050
   Max. coefficient     DIISMaxC        ....  10.000
 Newton-Raphson         CNVNR           .... off
 SOSCF                  CNVSOSCF        .... off
 Level Shifting         CNVShift        .... on
   Level shift para.    LevelShift      ....    0.2500
   Turn off err/grad.   ShiftErr        ....    0.0010
 Zerner damping         CNVZerner       .... off
 Static damping         CNVDamp         .... on
   Fraction old density DampFac         ....    0.7000
   Max. Damping (<1)    DampMax         ....    0.9800
   Min. Damping (>=0)   DampMin         ....    0.0000
   Turn off err/grad.   DampErr         ....    0.1000
 Fernandez-Rico         CNVRico         .... off

SCF Procedure:
 Maximum # iterations   MaxIter         ....   125
 SCF integral mode      SCFMode         .... Direct
   Integral package                     .... LIBINT
 Reset frequeny         DirectResetFreq ....    20
 Integral Threshold     Thresh          ....  1.000e-10 Eh
 Primitive CutOff       TCut            ....  1.000e-11 Eh

Convergence Tolerance:
 Convergence Check Mode ConvCheckMode   .... Total+1el-Energy
 Energy Change          TolE            ....  1.000e-06 Eh
 1-El. energy change                    ....  1.000e-03 Eh
 DIIS Error             TolErr          ....  1.000e-06


Diagonalization of the overlap matrix:
Smallest eigenvalue                        ... 5.951e-03
Time for diagonalization                   ...    0.022 sec
Threshold for overlap eigenvalues          ... 1.000e-08
Number of eigenvalues below threshold      ... 0
Time for construction of square roots      ...    0.031 sec
Total time needed                          ...    0.054 sec

-------------------
DFT GRID GENERATION
-------------------

General Integration Accuracy     IntAcc      ...  4.670
Radial Grid Type                 RadialGrid  ... Gauss-Chebyshev
Angular Grid (max. acc.)         AngularGrid ... Lebedev-302
Angular grid pruning method      GridPruning ... 3 (G Style)
Weight generation scheme         WeightScheme... Becke
Basis function cutoff            BFCut       ...    1.0000e-10
Integration weight cutoff        WCut        ...    1.0000e-14
Grids for H and He will be reduced by one unit

# of grid points (after initial pruning)     ...  12424 (   0.0 sec)
# of grid points (after weights+screening)   ...  12396 (   0.1 sec)
nearest neighbour list constructed           ...    0.0 sec
Grid point re-assignment to atoms done       ...    0.0 sec
Grid point division into batches done        ...    0.2 sec
Reduced shell lists constructed in    0.2 sec

Total number of grid points                  ...    12396
Total number of batches                      ...      194
Average number of points per batch           ...       63
Average number of grid points per atom       ...     6198
Average number of shells per batch           ...     5.42 (27.12%)
Average number of basis functions per batch  ...    13.27 (27.64%)
Average number of large shells per batch     ...     4.27 (78.72%)
Average number of large basis fcns per batch ...    10.12 (76.23%)
Maximum spatial batch extension              ...  19.94, 19.94, 12.15 au
Average spatial batch extension              ...   1.31,  1.31,  1.03 au

Time for grid setup =    0.469 sec

------------------------------
INITIAL GUESS: MODEL POTENTIAL
------------------------------
Loading Hartree-Fock densities                     ... done
Calculating cut-offs                               ... done
Setting up the integral package                    ... done
Initializing the effective Hamiltonian             ... done
Starting the Coulomb interaction                   ... done (   0.0 sec)
Reading the grid                                   ... done
Mapping shells                                     ... done
Starting the XC term evaluation                    ... done (   0.1 sec)
  promolecular density results
     # of electrons  =     16.000001117
     EX              =    -16.244059988
     EC              =     -0.573780940
     EX+EC           =    -16.817840927
Transforming the Hamiltonian                       ... done (   0.0 sec)
Diagonalizing the Hamiltonian                      ... done (   0.0 sec)
Back transforming the eigenvectors                 ... done (   0.0 sec)
Now organizing SCF variables                       ... done
                      ------------------
                      INITIAL GUESS DONE (   1.1 sec)
                      ------------------
--------------
SCF ITERATIONS
--------------
ITER       Energy         Delta-E        Max-DP      RMS-DP      [F,P]     Damp
               ***  Starting incremental Fock matrix formation  ***
  0   -150.2548227255   0.000000000000 0.03007408  0.00194835  0.2029754 0.7000
  1   -150.2894440846  -0.034621359141 0.02153706  0.00137451  0.0978177 0.7000
                               ***Turning on DIIS***
  2   -150.3033785755  -0.013934490858 0.03248759  0.00212988  0.0317548 0.0000
  3   -150.3256507562  -0.022272180693 0.01647849  0.00094258  0.0557653 0.0000
  4   -150.3304622243  -0.004811468119 0.00314922  0.00016596  0.0045007 0.0000
  5   -150.3305483414  -0.000086117165 0.00150968  0.00006297  0.0003156 0.0000
  6   -150.3305569393  -0.000008597817 0.00031662  0.00001600  0.0003347 0.0000
                 **** Energy Check signals convergence ****

               *****************************************************
               *                     SUCCESS                       *
               *           SCF CONVERGED AFTER   7 CYCLES          *
               *****************************************************

Setting up the final grid:

General Integration Accuracy     IntAcc      ...  5.010
Radial Grid Type                 RadialGrid  ... Gauss-Chebyshev
Angular Grid (max. acc.)         AngularGrid ... Lebedev-434
Angular grid pruning method      GridPruning ... 3 (G Style)
Weight generation scheme         WeightScheme... Becke
Basis function cutoff            BFCut       ...    1.0000e-10
Integration weight cutoff        WCut        ...    1.0000e-14
Grids for H and He will be reduced by one unit

# of grid points (after initial pruning)     ...  21684 (   0.0 sec)
# of grid points (after weights+screening)   ...  21606 (   0.0 sec)
nearest neighbour list constructed           ...    0.0 sec
Grid point re-assignment to atoms done       ...    0.0 sec
Grid point division into batches done        ...    0.3 sec
Reduced shell lists constructed in    0.4 sec

Total number of grid points                  ...    21606
Total number of batches                      ...      338
Average number of points per batch           ...       63
Average number of grid points per atom       ...    10803
Average number of shells per batch           ...     4.32 (21.59%)
Average number of basis functions per batch  ...    10.23 (21.31%)
Average number of large shells per batch     ...     3.32 (76.84%)
Average number of large basis fcns per batch ...     7.73 (75.56%)
Maximum spatial batch extension              ...  16.29, 16.29, 14.02 au
Average spatial batch extension              ...   1.05,  1.04,  0.90 au

Final grid set up in    0.8 sec
Final integration                            ... done (   0.1 sec)
Change in XC energy                          ...    -0.000002541
Integrated number of electrons               ...    17.000001594
Previous integrated no of electrons          ...    17.000003857

----------------
TOTAL SCF ENERGY
----------------

Total Energy       :         -150.33056026 Eh           -4090.70251 eV

Components:
Nuclear Repulsion  :           24.99618975 Eh             680.18090 eV
Electronic Energy  :         -175.32675001 Eh           -4770.88341 eV

One Electron Energy:         -262.48247359 Eh           -7142.51122 eV
Two Electron Energy:           87.15572358 Eh            2371.62781 eV

Virial components:
Potential Energy   :         -300.24907454 Eh           -8170.19268 eV
Kinetic Energy     :          149.91851428 Eh            4079.49017 eV
Virial Ratio       :            2.00274847


DFT components:
N(Alpha)           :        9.000000790357 electrons
N(Beta)            :        8.000000803793 electrons
N(Total)           :       17.000001594150 electrons
E(X)               :      -13.231106556973 Eh       
E(C)               :       -0.709851188462 Eh       
E(XC)              :      -13.940957745436 Eh       

---------------
SCF CONVERGENCE
---------------

  Last Energy change         ...   -7.7867e-07  Tolerance :   1.0000e-06
  Last MAX-Density change    ...    6.5244e-05  Tolerance :   1.0000e-05
  Last RMS-Density change    ...    3.5743e-06  Tolerance :   1.0000e-06
  Last DIIS Error            ...    2.9492e-05  Tolerance :   1.0000e-06

             **** THE GBW FILE WAS UPDATED (superoxide_superoxide.gbw) ****
             **** DENSITY FILE WAS UPDATED (superoxide_superoxide.scfp.tmp) ****
             **** ENERGY FILE WAS UPDATED (superoxide_superoxide.en.tmp) ****
----------------------
UHF SPIN CONTAMINATION
----------------------

Warning: in a DFT calculation there is little theoretical justification to 
         calculate <S**2> as in Hartree-Fock theory. We will do it anyways
         but you should keep in mind that the values have only limited relevance

Expectation value of <S**2>     :     0.754944
Ideal value S*(S+1) for S=0.5   :     0.750000
Deviation                       :     0.004944

----------------
ORBITAL ENERGIES
----------------
                 SPIN UP ORBITALS
  NO   OCC          E(Eh)            E(eV) 
   0   1.0000     -18.851544      -512.9766 
   1   1.0000     -18.851490      -512.9751 
   2   1.0000      -0.788785       -21.4639 
   3   1.0000      -0.465787       -12.6747 
   4   1.0000      -0.134079        -3.6485 
   5   1.0000      -0.131634        -3.5819 
   6   1.0000      -0.092808        -2.5254 
   7   1.0000       0.048070         1.3080 
   8   1.0000       0.090350         2.4585 
   9   0.0000       0.399573        10.8729 
  10   0.0000       0.615107        16.7379 
  11   0.0000       0.669759        18.2251 
  12   0.0000       0.671491        18.2722 
  13   0.0000       0.688468        18.7342 
  14   0.0000       0.736337        20.0368 
  15   0.0000       0.750533        20.4230 
  16   0.0000       0.767317        20.8798 
  17   0.0000       0.995998        27.1025 
  18   0.0000       1.590990        43.2930 
  19   0.0000       1.615449        43.9586 
  20   0.0000       1.629227        44.3335 
  21   0.0000       1.629335        44.3365 
  22   0.0000       1.932256        52.5794 
  23   0.0000       1.932293        52.5804 
  24   0.0000       2.155955        58.6665 
  25   0.0000       2.356321        64.1187 
  26   0.0000       2.382478        64.8305 
  27   0.0000       2.398410        65.2641 
  28   0.0000       2.729496        74.2734 
  29   0.0000       2.762909        75.1826 
  30   0.0000       2.870979        78.1233 
  31   0.0000       3.019002        82.1512 
  32   0.0000       3.034090        82.5618 
  33   0.0000       3.053584        83.0922 
  34   0.0000       3.056966        83.1843 
  35   0.0000       4.558935       124.0549 
  36   0.0000       6.419603       174.6863 
  37   0.0000       6.419962       174.6960 
  38   0.0000       6.549657       178.2252 
  39   0.0000       6.552285       178.2967 
  40   0.0000       6.583525       179.1468 
  41   0.0000       6.618128       180.0884 
  42   0.0000       6.659248       181.2073 
  43   0.0000       6.693075       182.1278 
  44   0.0000       6.696463       182.2200 
  45   0.0000       7.066310       192.2841 
  46   0.0000      43.128426      1173.5841 
  47   0.0000      43.585110      1186.0112 

                 SPIN DOWN ORBITALS
  NO   OCC          E(Eh)            E(eV) 
   0   1.0000     -18.837129      -512.5843 
   1   1.0000     -18.837029      -512.5816 
   2   1.0000      -0.757752       -20.6195 
   3   1.0000      -0.422186       -11.4883 
   4   1.0000      -0.117124        -3.1871 
   5   1.0000      -0.080376        -2.1871 
   6   1.0000      -0.046434        -1.2635 
   7   1.0000       0.105737         2.8772 
   8   0.0000       0.212087         5.7712 
   9   0.0000       0.415839        11.3155 
  10   0.0000       0.623404        16.9637 
  11   0.0000       0.681479        18.5440 
  12   0.0000       0.692657        18.8482 
  13   0.0000       0.697977        18.9929 
  14   0.0000       0.736706        20.0468 
  15   0.0000       0.771875        21.0038 
  16   0.0000       0.782928        21.3045 
  17   0.0000       1.005050        27.3488 
  18   0.0000       1.616174        43.9783 
  19   0.0000       1.617699        44.0198 
  20   0.0000       1.651048        44.9273 
  21   0.0000       1.652217        44.9591 
  22   0.0000       1.960850        53.3574 
  23   0.0000       1.962291        53.3967 
  24   0.0000       2.169242        59.0281 
  25   0.0000       2.387566        64.9690 
  26   0.0000       2.391155        65.0666 
  27   0.0000       2.409089        65.5546 
  28   0.0000       2.773284        75.4649 
  29   0.0000       2.788370        75.8754 
  30   0.0000       2.892232        78.7016 
  31   0.0000       3.047973        82.9395 
  32   0.0000       3.063792        83.3700 
  33   0.0000       3.074365        83.6577 
  34   0.0000       3.078836        83.7794 
  35   0.0000       4.574794       124.4865 
  36   0.0000       6.471816       176.1071 
  37   0.0000       6.475379       176.2040 
  38   0.0000       6.603894       179.7011 
  39   0.0000       6.607144       179.7895 
  40   0.0000       6.626253       180.3095 
  41   0.0000       6.636174       180.5795 
  42   0.0000       6.701208       182.3491 
  43   0.0000       6.712275       182.6503 
  44   0.0000       6.717335       182.7880 
  45   0.0000       7.085863       192.8161 
  46   0.0000      43.143313      1173.9892 
  47   0.0000      43.600020      1186.4168 

                    ********************************
                    * MULLIKEN POPULATION ANALYSIS *
                    ********************************

--------------------------------------------
MULLIKEN ATOMIC CHARGES AND SPIN POPULATIONS
--------------------------------------------
   0 O :   -0.500000    0.500000
   1 O :   -0.500000    0.500000
Sum of atomic charges         :   -1.0000000
Sum of atomic spin populations:    1.0000000

-----------------------------------------------------
MULLIKEN REDUCED ORBITAL CHARGES AND SPIN POPULATIONS
-----------------------------------------------------
CHARGE
  0 O s       :     3.940690  s :     3.940690
      pz      :     1.046437  p :     4.528027
      px      :     1.586554
      py      :     1.895036
      dz2     :     0.012774  d :     0.031283
      dxz     :     0.009097
      dyz     :     0.009313
      dx2y2   :     0.000038
      dxy     :     0.000061
  1 O s       :     3.940690  s :     3.940690
      pz      :     1.046437  p :     4.528027
      px      :     1.586554
      py      :     1.895036
      dz2     :     0.012774  d :     0.031283
      dxz     :     0.009097
      dyz     :     0.009313
      dx2y2   :     0.000038
      dxy     :     0.000061

SPIN
  0 O s       :     0.005054  s :     0.005054
      pz      :    -0.005428  p :     0.495133
      px      :     0.404660
      py      :     0.095902
      dz2     :     0.000296  d :    -0.000187
      dxz     :    -0.000311
      dyz     :    -0.000251
      dx2y2   :     0.000030
      dxy     :     0.000049
  1 O s       :     0.005054  s :     0.005054
      pz      :    -0.005428  p :     0.495133
      px      :     0.404660
      py      :     0.095902
      dz2     :     0.000296  d :    -0.000187
      dxz     :    -0.000311
      dyz     :    -0.000251
      dx2y2   :     0.000030
      dxy     :     0.000049


                     *******************************
                     * LOEWDIN POPULATION ANALYSIS *
                     *******************************

-------------------------------------------
LOEWDIN ATOMIC CHARGES AND SPIN POPULATIONS
-------------------------------------------
   0 O :   -0.500000    0.500000
   1 O :   -0.500000    0.500000

----------------------------------------------------
LOEWDIN REDUCED ORBITAL CHARGES AND SPIN POPULATIONS
----------------------------------------------------
CHARGE
  0 O s       :     3.744176  s :     3.744176
      pz      :     1.208000  p :     4.652709
      px      :     1.571283
      py      :     1.873426
      dz2     :     0.047724  d :     0.103115
      dxz     :     0.024368
      dyz     :     0.030923
      dx2y2   :     0.000038
      dxy     :     0.000061
  1 O s       :     3.744176  s :     3.744176
      pz      :     1.208000  p :     4.652709
      px      :     1.571283
      py      :     1.873426
      dz2     :     0.047724  d :     0.103115
      dxz     :     0.024368
      dyz     :     0.030923
      dx2y2   :     0.000038
      dxy     :     0.000061

SPIN
  0 O s       :     0.004894  s :     0.004894
      pz      :    -0.005768  p :     0.485636
      px      :     0.397139
      py      :     0.094264
      dz2     :     0.000795  d :     0.009470
      dxz     :     0.007210
      dyz     :     0.001387
      dx2y2   :     0.000030
      dxy     :     0.000049
  1 O s       :     0.004894  s :     0.004894
      pz      :    -0.005768  p :     0.485636
      px      :     0.397139
      py      :     0.094264
      dz2     :     0.000795  d :     0.009470
      dxz     :     0.007210
      dyz     :     0.001387
      dx2y2   :     0.000030
      dxy     :     0.000049


                      *****************************
                      * MAYER POPULATION ANALYSIS *
                      *****************************

  NA   - Mulliken gross atomic population
  ZA   - Total nuclear charge
  QA   - Mulliken gross atomic charge
  VA   - Mayer's total valence
  BVA  - Mayer's bonded valence
  FA   - Mayer's free valence

  ATOM       NA         ZA         QA         VA         BVA        FA
  0 O      8.5000     8.0000    -0.5000     1.5754     1.3058     0.2696
  1 O      8.5000     8.0000    -0.5000     1.5754     1.3058     0.2696

  Mayer bond orders larger than 0.1
B(  0-O ,  1-O ) :   1.3058 

-------
TIMINGS
-------

Total SCF time: 0 days 0 hours 0 min 9 sec 

Total time                  ....       9.464 sec
Sum of individual times     ....      10.840 sec  (114.5%)

Fock matrix formation       ....       7.970 sec  ( 84.2%)
  Coulomb formation         ....       6.398 sec  ( 80.3% of F)
  XC integration            ....       1.215 sec  ( 15.2% of F)
    Basis function eval.    ....       0.082 sec  (  6.8% of XC)
    Density eval.           ....       0.085 sec  (  7.0% of XC)
    XC-Functional eval.     ....       0.065 sec  (  5.4% of XC)
    XC-Potential eval.      ....       0.105 sec  (  8.6% of XC)
Diagonalization             ....       0.302 sec  (  3.2%)
Density matrix formation    ....       0.172 sec  (  1.8%)
Population analysis         ....       0.004 sec  (  0.0%)
Initial guess               ....       1.110 sec  ( 11.7%)
Orbital Transformation      ....       0.000 sec  (  0.0%)
Orbital Orthonormalization  ....       0.000 sec  (  0.0%)
DIIS solution               ....       0.056 sec  (  0.6%)
Grid generation             ....       1.226 sec  ( 13.0%)
           ************************************************************
           *              Shut down parallel processing               *
           ************************************************************

-------------------------   --------------------
FINAL SINGLE POINT ENERGY      -150.330560259230
-------------------------   --------------------


                            ***************************************
                            *     ORCA property calculations      *
                            ***************************************

                                    ---------------------
                                    Active property flags
                                    ---------------------
   (+) Dipole Moment


------------------------------------------------------------------------------
                       ORCA ELECTRIC PROPERTIES CALCULATION
------------------------------------------------------------------------------

Dipole Moment Calculation                       ... on
Quadrupole Moment Calculation                   ... off
Polarizability Calculation                      ... off
GBWName                                         ... superoxide_superoxide.gbw
Electron density file                           ... superoxide_superoxide.scfp.tmp

-------------
DIPOLE MOMENT
-------------
                                X             Y             Z
Electronic contribution:      0.00000       0.00000       0.00000
Nuclear contribution   :      0.00000       0.00000       0.00000
                        -----------------------------------------
Total Dipole Moment    :      0.00000       0.00000       0.00000
                        -----------------------------------------
Magnitude (a.u.)       :      0.00000
Magnitude (Debye)      :      0.00000


Timings for individual modules:

Sum of individual times         ...       17.548 sec (=   0.292 min)
GTO integral calculation        ...        4.247 sec (=   0.071 min)  24.2 %
SCF iterations                  ...       13.301 sec (=   0.222 min)  75.8 %
                             ****ORCA TERMINATED NORMALLY****
TOTAL RUN TIME: 0 days 0 hours 0 minutes 20 seconds 133 msec
